Metabolite,HMDB Name,Shift (ppm),Hs,Type,J (Hz),Height,Physiological Charge,SMILES,InChlKey,pKa (Strongest Acidic),pKa (Strongest Basic),Blood,Urine,Feces,Saliva,Cerebrospinal Fluid (CSF),Amniotic Fluid,Aqueous Humour,Ascites Fluid,Breast Milk,Lymph,Sweat,Tears
Verapamil,HMDB01850,3.845,12,dd,NA,1,1,COC1=C(OC)C=C(CCN(C)CCCC(C#N)(C(C)C)C2=CC(OC)=C(OC)C=C2)C=C1,InChIKey=SGTNSNPWRIOYBX-UHFFFAOYSA-N,12.45,-0.16,NaN,NaN,NaN,NaN,NaN,NaN,NaN,NaN,NaN,NaN,NaN,NaN
Inosine,HMDB00195,3.847,1,dd,12.77 4.03,0.1734,-1,OC[C@H]1O[C@H]([C@H](O)[C@@H]1O)N1C=NC2=C1N=CNC2=O,InChIKey=UGQMRVRMYYASKQ-KQYNXXCUSA-N,1.73,9.73,1.3875,0.67,NaN,0.37,0.64,NaN,NaN,NaN,NaN,NaN,NaN,NaN
L-Serine,HMDB00187,3.847,31,dd,5.583 3.808,NA,0,N[C@@H](CO)C(O)=O,InChIKey=MTCFGRXMJLQNBG-REOHCLBHSA-N,1.64,9.25,170.75,28.024,NaN,40.8,25.75,NaN,NaN,NaN,NaN,NaN,NaN,NaN
D-Serine,HMDB03406,3.848,1,dd,5.72 3.73,0.8194,0,N[C@H](CO)C(O)=O,InChIKey=MTCFGRXMJLQNBG-UWTATZPHSA-N,14.58,-3,2.28,0.0021,NaN,NaN,52,NaN,NaN,NaN,NaN,NaN,NaN,NaN
Sorbitol,HMDB00247,3.853,2,m,NA,1,0,OC[C@H](O)[C@@H](O)[C@H](O)[C@H](O)CO,InChIKey=FBPFZTCFMRRESA-JGWLITMVSA-N,4.48,-0.54,7.045,3.5,NaN,NA,16.3,NaN,NaN,NaN,NaN,NaN,NaN,NaN
Neopterin,HMDB00845,3.855,1,dd,11.94 3.63,0.282,0,NC1=NC2=C(N=C(C=N2)C(O)C(O)CO)C(=O)N1,InChIKey=BMQYVXCPAOLZOK-UHFFFAOYSA-N,0.83,-0.77,0.004933333,NaN,NaN,NaN,NaN,NaN,NaN,NaN,NaN,NaN,NaN,NaN
Riboflavin,HMDB00244,3.855,1,dd,7.11 5.19,0.1589,-1,CC1=C(C)C=C2N(C[C@H](O)[C@H](O)[C@H](O)CO)C3=NC(=O)NC(=O)C3=NC2=C1,InChIKey=AUNGANRZJHBGPY-SCRDCRAPSA-N,4.17,-3,0.015,0.18,NaN,0.058,NaN,NaN,NaN,NaN,NaN,NaN,NaN,NaN
L-Hexanoylcarnitine,HMDB00756,3.855,1,dd,NA,0.0204,0,CCCCCC(=O)O[C@H](CC([O-])=O)C[N+](C)(C)C,InChIKey=VVPRQWTYSNDTEA-LLVKDONJSA-N,4.17,-3.3,0.08,NaN,NaN,NaN,NaN,NaN,NaN,NaN,NaN,NaN,NaN,NaN
1-Methyladenosine,HMDB03331,3.855,3,s,NA,1,0,CN1C=NC2=C(N=CN2[C@@H]2O[C@H](CO)[C@@H](O)[C@H]2O)C1=N,InChIKey=GFYLSDSUCHVORB-IOSLPCCCSA-N,14.58,-3,0.1,8.716666667,NaN,NaN,NaN,NaN,NaN,NaN,NaN,NaN,NaN,NaN
Deoxyuridine,HMDB00012,3.855,7,dd,NA,0.1087,0,OC[C@H]1O[C@H](C[C@@H]1O)N1C=CC(=O)NC1=O,InChIKey=MXHRCPNRJAMMIM-SHYZEUOFSA-N,4,-9.7,0.284,1,NaN,NaN,0,NaN,NaN,NaN,NaN,NaN,NaN,NaN
N-Acetylneuraminic acid,HMDB00230,3.855,1,dd,11.86 2.67,0.0835,-1,CC(=O)N[C@@H]1[C@@H](O)C[C@](O)(O[C@H]1[C@H](O)[C@H](O)CO)C(O)=O,InChIKey=SQVRNKJHWKZAKO-PFQGKNLYSA-N,2.89,6.96,0.57,8.6,NaN,NaN,11.9,NaN,NaN,NaN,NaN,NaN,NaN,NaN
Pseudouridine,HMDB00767,3.855,1,m,NA,0.2356,0,OC[C@H]1O[C@H]([C@H](O)[C@@H]1O)C1=CNC(=O)NC1=O,InChIKey=PTJWIQPHWPFNBW-GBNDHIKLSA-N,1.08,-3.6,3.18,17.15566667,NaN,NaN,NaN,NaN,NaN,NaN,NaN,NaN,NaN,NaN
2-Hydroxy-3-methylbutyric acid,HMDB00407,3.855,8,d,3.75,0.141,-1,CC(C)C(O)C(O)=O,InChIKey=NGEWQZIDQIYUNV-UHFFFAOYSA-N,4.6,-7,6.1,NaN,NaN,3.13,7.4,NaN,NaN,NaN,NaN,NaN,NaN,NaN
Mannitol,HMDB00765,3.855,21,dd,11.87 2.86,0.4307,0,OC[C@@H](O)[C@@H](O)[C@H](O)[C@H](O)CO,InChIKey=FBPFZTCFMRRESA-KVTDHHQDSA-N,14.75,-0.16,34,10.26,NaN,NaN,4.875,NaN,NaN,NaN,NaN,NaN,NaN,NaN
Guaifenesin,HMDB04998,3.855,3,s,NA,1,0,COC1=CC=CC=C1OCC(O)CO,InChIKey=HSRJKNPTNIJEKV-UHFFFAOYSA-N,1.87,10,NA,NA,NA,NA,NA,NA,NA,NA,NA,NA,NA,NA
N-Methyl-a-aminoisobutyric acid,HMDB02141,3.855,1,s,NA,0.4591,0,CNC(C)(C)C(O)=O,InChIKey=DLAMVQGYEVKIRE-UHFFFAOYSA-N,-1.8,-3.5,NA,NA,NA,NA,NA,NA,NA,NA,NA,NA,NA,NA
3.4.5-Trimethoxycinnamic acid,HMDB02511,3.855,5,s,NA,1,-1,COC1=CC(\C=C\C(O)=O)=CC(OC)=C1OC,InChIKey=YTFVRYKNXDADBI-SNAWJCMRSA-N,15.1,-3.9,NaN,NaN,NaN,NaN,NaN,NaN,NaN,NaN,NaN,NaN,NaN,NaN
6-Phosphogluconic acid,HMDB01316,3.855,1,m,NA,0.1511,-3,O[C@H](COP(O)(O)=O)[C@@H](O)[C@H](O)[C@@H](O)C(O)=O,InChIKey=BIRSGZKFKXLSJQ-SQOUGZDYSA-N,1.78,10.62,NaN,NaN,NaN,NaN,NaN,NaN,NaN,NaN,NaN,NaN,NaN,NaN
Deoxyadenosine,HMDB00101,3.855,1,dd,12.60 3.25,0.3275,0,NC1=NC=NC2=C1N=CN2[C@H]1C[C@H](O)[C@@H](CO)O1,InChIKey=OLXZPDWKRNYJJZ-RRKCRQDMSA-N,1.86,-6.7,NaN,0.22,NaN,NaN,NaN,NaN,NaN,NaN,NaN,NaN,NaN,NaN
D-Maltose,HMDB00163,3.855,2,m,NA,0.6786,0,OC[C@H]1O[C@H](O[C@H]2[C@H](O)[C@H](O)[C@@H](O)O[C@@H]2CO)[C@H](O)[C@@H](O)[C@@H]1O,InChIKey=GUBGYTABKSRVRQ-DKBJLJRDSA-N,7.93,9.34,NaN,NaN,NaN,NaN,NaN,NaN,NaN,NaN,NaN,NaN,NaN,NaN
Homoveratric acid,HMDB00434,3.855,5,d,4.48,1,-1,COC1=CC=C(CC(O)=O)C=C1OC,InChIKey=WUAXWQRULBZETB-UHFFFAOYSA-N,19.52,-0.58,NaN,NaN,NaN,NaN,NaN,NaN,NaN,NaN,NaN,NaN,NaN,NaN
Isomaltose,HMDB02923,3.855,2,m,NA,0.651,0,OC[C@H]1O[C@H](OC[C@H]2OC(O)[C@H](O)[C@@H](O)[C@@H]2O)[C@H](O)[C@@H](O)[C@@H]1O,InChIKey=DLRVVLDZNNYCBX-RTPHMHGBSA-N,9.91,-1.4,NaN,NaN,NaN,NaN,NaN,NaN,NaN,NaN,NaN,NaN,NaN,NaN
Ribonolactone,HMDB01900,3.855,6,dq,NA,1,0,OC[C@H]1OC(=O)[C@H](O)[C@@H]1O,InChIKey=CUOKHACJLGPRHD-BXXZVTAOSA-N,18.21,-3.3,NaN,NaN,NaN,NaN,NaN,NaN,NaN,NaN,NaN,NaN,NaN,NaN
Syringic acid,HMDB02085,3.855,2,s,NA,1,-1,COC1=CC(=CC(OC)=C1O)C(O)=O,InChIKey=JMSVCTWVEWCHDZ-UHFFFAOYSA-N,15.93,-3,NaN,1.5,NaN,NaN,NaN,NaN,NaN,NaN,NaN,NaN,NaN,NaN
D-Mannose,HMDB00169,3.857,17,m,NA,NA,0,OC[C@H]1OC(O)[C@@H](O)[C@@H](O)[C@@H]1O,InChIKey=WQZGKKKJIJFFOK-QTVWNMPRSA-N,3.66,9.48,39,1.25,NaN,NaN,44,NaN,NaN,NaN,NaN,NaN,NaN,NaN
L-Iditol,HMDB11632,3.858,2,m,NA,0.3322,0,OC[C@H](O)[C@@H](O)[C@H](O)[C@@H](O)CO,InChIKey=FBPFZTCFMRRESA-UNTFVMJOSA-N,1.86,-3,NaN,NaN,NaN,NaN,NaN,NaN,NaN,NaN,NaN,NaN,NaN,NaN
Vanillylmandelic acid,HMDB00291,3.862,4,s,NA,1,-1,COC1=C(O)C=CC(=C1)[C@H](O)C(O)=O,InChIKey=CGQCWMIAEPEHNQ-QMMMGPOBSA-N,8.93,-3.7,NaN,NA,NaN,NaN,NaN,NaN,NaN,NaN,NaN,NaN,NaN,NaN
L-Cystathionine,HMDB00099,3.865,1,dt,6.85 5.56,0.4698,0,N[C@@H](CCSC[C@H](N)C(O)=O)C(O)=O,InChIKey=ILRYLPWNYFXEMH-WHFBIAKZSA-N,14.58,-3,0.2275,1.69,NaN,NaN,NaN,NaN,NaN,NaN,NaN,NaN,NaN,NaN
DL-Homocystine,HMDB00575,3.865,2,dd,3.22 2.62,0.1454,0,NC(CCSSCCC(N)C(O)=O)C(O)=O,InChIKey=ZTVZLYBCZNMWCF-UHFFFAOYSA-N,1.87,0.033,9.8,0.21,NaN,NaN,NaN,NaN,NaN,NaN,NaN,NaN,NaN,NaN
L-Homoserine,HMDB00719,3.865,1,dd,7.56 4.81,0.5836,0,N[C@@H](CCO)C(O)=O,InChIKey=UKAUYVFTDYCKQA-VKHMYHEASA-N,9.55,-7.4,12,NaN,NaN,NaN,NaN,NaN,NaN,NaN,NaN,NaN,NaN,NaN
D-Ribose 5-phosphate,HMDB01548,3.865,20,m,NA,0.5034,-2,OC1O[C@H](COP(O)(O)=O)[C@@H](O)[C@H]1O,InChIKey=KTVPXOYAKDPRHY-SOOFDHNKSA-N,4.64,-6,13.2,NaN,NaN,NaN,NaN,NaN,NaN,NaN,NaN,NaN,NaN,NaN
Gamma-Glutamylcysteine,HMDB01049,3.865,2,t,6.15,0.5273,-1,N[C@@H](CCC(=O)N[C@@H](CS)C(O)=O)C(O)=O,InChIKey=RITKHVBHSGLULN-WHFBIAKZSA-N,1.78,-3.6,25,NaN,NaN,NaN,NaN,NaN,NaN,NaN,NaN,NaN,NaN,NaN
3-Mercaptopyruvic acid,HMDB01368,3.865,28,d,14.14,0.9499,-1,OC(=O)C(=O)CS,InChIKey=OJOLFAIGOXZBCI-UHFFFAOYSA-N,10.13,10.59,NA,NA,NA,NA,NA,NA,NA,NA,NA,NA,NA,NA
Allocystathionine,HMDB00455,3.865,1,dt,6.86 5.57,0.5898,0,N[C@@H](CCSCC(N)C(O)=O)C(O)=O,InChIKey=ILRYLPWNYFXEMH-ROLXFIACSA-N,11.7,-3,NA,NA,NA,NA,NA,NA,NA,NA,NA,NA,NA,NA
Sedoheptulose,HMDB03219,3.865,4,m,NA,1,0,OCC(O)C(O)C(O)C(O)C(=O)CO,InChIKey=HSNZZMHEPUFJNZ-UHFFFAOYSA-N,14.58,-3,NA,NA,NA,NA,NA,NA,NA,NA,NA,NA,NA,NA
Valerylglycine,HMDB00927,3.865,2,d,5.81,0.8361,-1,CCCCC(=O)NCC(O)=O,InChIKey=NYZBWOSRZJKQAI-UHFFFAOYSA-N,1.48,4.95,NA,NA,NA,NA,NA,NA,NA,NA,NA,NA,NA,NA
Beta-N-Acetylglucosamine,HMDB00803,3.865,4,m,NA,0.1388,0,CC(=O)N[C@H]1[C@H](O)O[C@H](CO)[C@@H](O)[C@@H]1O,InChIKey=OVRNDRQMDRJTHS-FMDGEEDCSA-N,1.16,8.69,NaN,NaN,NaN,NaN,NaN,NaN,NaN,NaN,NaN,NaN,NaN,NaN
Deoxyinosine,HMDB00071,3.865,1,m,NA,0.1678,0,OC[C@H]1O[C@H](C[C@@H]1O)N1C=NC2=C1N=CN=C2O,InChIKey=VGONTNSXDCQUGY-RRKCRQDMSA-N,3.53,-4.9,NaN,NA,NaN,NaN,NaN,NaN,NaN,NaN,NaN,NaN,NaN,NaN
D-Tagatose,HMDB03418,3.865,2,m,NA,0.8912,0,OC[C@@H](O)[C@H](O)[C@H](O)C(=O)CO,InChIKey=BJHIKXHVCXFQLS-PQLUHFTBSA-N,14.58,-3,NaN,NaN,NaN,NaN,NaN,NaN,NaN,NaN,NaN,NaN,NaN,NaN
Hexanoylcarnitine,HMDB00705,3.865,1,dd,14.46 8.69,0.0339,0,CCCCCC(=O)OC(CC([O-])=O)C[N+](C)(C)C,InChIKey=VVPRQWTYSNDTEA-UHFFFAOYSA-N,11.39,-6.3,NaN,NaN,NaN,NaN,NaN,NaN,NaN,NaN,NaN,NaN,NaN,NaN
Omeprazole,HMDB01913,3.865,3,s,NA,0.6199,0,COC1=CC2=C(C=C1)N=C(N2)S(=O)CC1=NC=C(C)C(OC)=C1C,InChIKey=SUBDBMMJDZJVOS-UHFFFAOYSA-N,3.26,-3.8,NaN,NaN,NaN,NaN,NaN,NaN,NaN,NaN,NaN,NaN,NaN,NaN
Ranitidine,HMDB01930,3.865,1,s,NA,0.2477,1,CN\C(NCCSCC1=CC=C(CN(C)C)O1)=C/[N+]([O-])=O,InChIKey=VMXUWOKSQNHOCA-UKTHLTGXSA-N,1.87,10,NaN,NaN,NaN,NaN,NaN,NaN,NaN,NaN,NaN,NaN,NaN,NaN
Rhamnose,HMDB00849,3.865,1,dq,9.54 6.24,0.1048,0,C[C@@H]1OC(O)[C@H](O)[C@H](O)[C@H]1O,InChIKey=SHZGCJCMOBCMKK-JFNONXLTSA-N,0.89,-1.5,NaN,NaN,NaN,NaN,NaN,NaN,NaN,NaN,NaN,NaN,NaN,NaN
Theobromine,HMDB02825,3.865,3,br. s.,NA,0.6574,0,CN1C=NC2=C1C(=O)NC(=O)N2C,InChIKey=YAPQBXQYLJRXSA-UHFFFAOYSA-N,2.84,-3.6,NaN,0.5,NaN,NaN,NaN,NaN,NaN,NaN,NaN,NaN,NaN,NaN
L-Methionine,HMDB00696,3.866,6,dd,7.100 5.382,NA,0,CSCC[C@H](N)C(O)=O,InChIKey=FFEARJCKVFRZRR-BYPYZUCNSA-N,9.99,-3,29.4,1.35075,NaN,8.81,3.4675,NaN,NaN,NaN,NaN,NaN,NaN,NaN
Adenosine,HMDB00050,3.872,1,dd,12.91 3.57,0.1745,0,NC1=NC=NC2=C1N=CN2[C@@H]1O[C@H](CO)[C@@H](O)[C@H]1O,InChIKey=OIRDTQYFTABQOQ-KQYNXXCUSA-N,1.86,-6.7,1.3435,0.335,NaN,0.24,0,NaN,NaN,NaN,NaN,NaN,NaN,NaN
Prostaglandin D2,HMDB01403,3.875,1,m,NA,0.011,-1,CCCCC[C@H](O)\C=C\[C@@H]1[C@@H](C\C=C/CCCC(O)=O)[C@@H](O)CC1=O,InChIKey=BHMBVRSPMRCCGG-OUTUXVNYSA-N,3.65,5.53,2.00E-04,NaN,NaN,NaN,NaN,NaN,NaN,NaN,NaN,NaN,NaN,NaN
1-Methylinosine,HMDB02721,3.875,1,dd,12.32 2.97,0.0936,0,CN1C=NC2=C(N=CN2[C@@H]2O[C@H](CO)[C@@H](O)[C@H]2O)C1=O,InChIKey=WJNGQIYEQLPJMN-IOSLPCCCSA-N,18.21,9.04,0.06345,1.13,NaN,NaN,NaN,NaN,NaN,NaN,NaN,NaN,NaN,NaN
Homovanillic acid,HMDB00118,3.875,3,s,NA,1,-1,COC1=CC(CC(O)=O)=CC=C1O,InChIKey=QRMZSPFSDQBLIX-UHFFFAOYSA-N,1.86,-4.8,0.082,NA,NaN,NaN,0.16,NaN,NaN,NaN,NaN,NaN,NaN,NaN
3-Methoxytyrosine,HMDB01434,3.875,31,s,NA,1,0,COC1=CC(CC(N)C(O)=O)=CC=C1O,InChIKey=PFDUUKDQEHURQC-UHFFFAOYSA-N,1.83,-3.6,0.089,0.06,NaN,NaN,NaN,NaN,NaN,NaN,NaN,NaN,NaN,NaN
L-Octanoylcarnitine,HMDB00791,3.875,1,dd,14.48 8.72,0.0339,0,CCCCCCCC(=O)O[C@H](CC([O-])=O)C[N+](C)(C)C,InChIKey=CXTATJFJDMJMIY-CYBMUJFWSA-N,3.6,3.19,0.1755,NaN,NaN,NaN,NaN,NaN,NaN,NaN,NaN,NaN,NaN,NaN
Ethenodeoxyadenosine,HMDB01786,3.875,1,dd,NA,0.3458,0,OC[C@H]1O[C@H](C[C@@H]1O)N1C=NC2=C1N=CN1C=CN=C21,InChIKey=XQQIMTUYVDUWKJ-DJLDLDEBSA-N,7.67,4.94,NA,NA,NA,NA,NA,NA,NA,NA,NA,NA,NA,NA
Alpha-Lactose,HMDB00186,3.875,1,m,NA,0.1844,0,OC[C@H]1O[C@@H](O[C@H]2[C@H](O)[C@@H](O)[C@@H](O)O[C@@H]2CO)[C@H](O)[C@@H](O)[C@H]1O,InChIKey=GUBGYTABKSRVRQ-XLOQQCSPSA-N,1.87,10,NaN,1.45,NaN,NaN,NaN,NaN,NaN,NaN,NaN,NaN,NaN,NaN
L-Fucose,HMDB00174,3.875,4,dd,10.30 3.38,0.0881,0,C[C@@H]1OC(O)[C@@H](O)[C@H](O)[C@@H]1O,InChIKey=SHZGCJCMOBCMKK-DHVFOXMCSA-N,14.12,9.39,NaN,9.6,NaN,112.06,NaN,NaN,NaN,NaN,NaN,NaN,NaN,NaN
Aminoadipic acid,HMDB00510,3.879,1,m,NA,0.5977,-1,NC(CCCC(O)=O)C(O)=O,InChIKey=OYIFNHCXNCRBQI-UHFFFAOYSA-N,7.6,-3.8,2,4.6,NaN,NaN,NaN,NaN,NaN,NaN,NaN,NaN,NaN,NaN
Uridine diphosphate-N-acetylglucosamine,HMDB00290,3.882,1,dd,NA,0.0823,-2,CC(=O)N[C@@H]1[C@@H](O)[C@H](O)[C@@H](CO)O[C@@H]1OP(O)(=O)OP(O)(=O)OC[C@H]1O[C@H]([C@H](O)[C@@H]1O)N1C=CC(=O)NC1=O,InChIKey=LFTYTUAZOPRMMI-CFRASDGPSA-N,4.67,-0.88,NaN,NaN,NaN,NaN,NaN,NaN,NaN,NaN,NaN,NaN,NaN,NaN
Deacetyldiltiazem,HMDB02873,3.884,3,s,NA,0.5613,1,COC1=CC=C(C=C1)[C@@H]1SC2=CC=CC=C2N(CCN(C)C)C(=O)[C@@H]1O,InChIKey=NZHUXMZTSSZXSB-MOPGFXCFSA-N,2.52,-4,NA,NA,NA,NA,NA,NA,NA,NA,NA,NA,NA,NA
1-Methyladenosine,HMDB03331,3.885,1,t,NA,0.1264,0,CN1C=NC2=C(N=CN2[C@@H]2O[C@H](CO)[C@@H](O)[C@H]2O)C1=N,InChIKey=GFYLSDSUCHVORB-IOSLPCCCSA-N,14.58,-3,0.1,8.716666667,NaN,NaN,NaN,NaN,NaN,NaN,NaN,NaN,NaN,NaN
Guanosine,HMDB00133,3.885,1,d,3.09,0.1794,0,NC1=NC2=C(N=CN2[C@@H]2O[C@H](CO)[C@@H](O)[C@H]2O)C(=O)N1,InChIKey=NYHBQMYGNKIUIF-UUOKFMHZSA-N,2.48,-3.6,0.8,0.08,NaN,0.101,NaN,NaN,NaN,NaN,NaN,NaN,NaN,NaN
Prostaglandin E2,HMDB01220,3.885,1,m,NA,0.0131,-1,CCCCC[C@H](O)\C=C\[C@H]1[C@H](O)CC(=O)[C@@H]1C\C=C/CCCC(O)=O,InChIKey=XEYBRNLFEZDVAW-ARSRFYASSA-N,3.84,-3.2,3.7,NaN,NaN,NaN,NA,NaN,NaN,NaN,NaN,NaN,NaN,NaN
Homocysteine,HMDB00742,3.885,1,dd,7.13 5.62,0.4122,0,NC(CCS)C(O)=O,InChIKey=FFFHZYDWPBMWHY-UHFFFAOYSA-N,12.58,4.46,9.596666667,NaN,NaN,4.76,NaN,NaN,NaN,NaN,NaN,NaN,NaN,NaN
Propylene glycol,HMDB01881,3.885,13,m,NA,NA,0,CC(O)CO,InChIKey=DNIAPMSPPWPWGF-UHFFFAOYSA-N,2.03,4.95,12.15,NaN,NaN,NA,33,NaN,NaN,NaN,NaN,NaN,NaN,NaN
Glucose 6-phosphate,HMDB01401,3.885,1,ddd,9.81 3.86 2.04,0.1089,-2,OC1O[C@H](COP(O)(O)=O)[C@@H](O)[C@H](O)[C@H]1O,InChIKey=NBSCHQHZLSJFNQ-GASJEMHNSA-N,1.86,4.95,29.1,NaN,NaN,NaN,NaN,NaN,NaN,NaN,NaN,NaN,NaN,NaN
Allose,HMDB01151,3.885,1,dd,12.12 1.88,0.3025,0,[H][C@@]1(CO)OC(O)[C@@]([H])(O)[C@@]([H])(O)[C@@]1([H])O,InChIKey=WQZGKKKJIJFFOK-HOWGCPQDSA-N,10.47,-4.8,NA,NA,NA,NA,NA,NA,NA,NA,NA,NA,NA,NA
Canavanine,HMDB02706,3.885,1,t,6.16,0.6752,1,N[C@@H](CCONC(N)=N)C(O)=O,InChIKey=FSBIGDSBMBYOPN-VKHMYHEASA-N,1.73,-7.1,NA,NA,NA,NA,NA,NA,NA,NA,NA,NA,NA,NA
Imipramine,HMDB01848,3.885,6,t,6.15,0.1406,1,CN(C)CCCN1C2=CC=CC=C2CCC2=CC=CC=C12,InChIKey=BCGWQEUPMDMJNV-UHFFFAOYSA-N,2.98,9.73,NA,NA,NA,NA,NA,NA,NA,NA,NA,NA,NA,NA
Maltitol,HMDB02928,3.885,4,m,NA,1,0,[H][C@@](O[C@H]1O[C@H](CO)[C@@H](O)[C@H](O)[C@H]1O)([C@H](O)CO)[C@H](O)[C@@H](O)CO,InChIKey=VQHSOMBJVWLPSR-WUJBLJFYSA-N,1.22,-0.88,NA,NA,NA,NA,NA,NA,NA,NA,NA,NA,NA,NA
Muramic acid,HMDB03254,3.885,3,m,NA,0.2307,0,C[C@@H](O[C@H]1[C@@H](N)[C@H](O)O[C@H](CO)[C@H]1O)C(O)=O,InChIKey=MSFSPUZXLOGKHJ-LEISLEKSSA-N,14.58,-3,NA,NA,NA,NA,NA,NA,NA,NA,NA,NA,NA,NA
1.5-Anhydrosorbitol,HMDB02712,3.885,1,d,12.17,0.4755,0,OC[C@H]1OC[C@H](O)[C@@H](O)[C@@H]1O,InChIKey=MPCAJMNYNOGXPB-SLPGGIOYSA-N,1.86,-6.7,NaN,NaN,NaN,NaN,62.96666667,NaN,NaN,NaN,NaN,NaN,NaN,NaN
Glucose 1-phosphate,HMDB01586,3.885,12,m,NA,0.6353,-2,OC[C@H]1OC(OP(O)(O)=O)[C@H](O)[C@@H](O)[C@@H]1O,InChIKey=HXXFSFRBOHSIMQ-GASJEMHNSA-N,4.95,-4,NaN,NaN,NaN,NaN,NaN,NaN,NaN,NaN,NaN,NaN,NaN,NaN
Methionine sulfoxide,HMDB02005,3.885,1,m,NA,0.0895,0,CS(=O)CCC(N)C(O)=O,InChIKey=QEFRNWWLZKMPFJ-UHFFFAOYSA-N,0.83,9.31,NaN,NA,NaN,3.28,NaN,NaN,NaN,NaN,NaN,NaN,NaN,NaN
N-Acetylgalactosamine,HMDB00212,3.885,1,d,NA,0.0334,0,CC(=O)N[C@H]1[C@@H](O)O[C@H](CO)[C@H](O)[C@@H]1O,InChIKey=OVRNDRQMDRJTHS-CBQIKETKSA-N,15.7,-3.3,NaN,NaN,NaN,NaN,NaN,NaN,NaN,NaN,NaN,NaN,NaN,NaN
N-Acetylgalactosamine 4-sulphate,HMDB00781,3.885,3,m,NA,0.1472,-1,CC(=O)N[C@H]1[C@H](O)O[C@H](CO)[C@H](OS(O)(=O)=O)[C@@H]1O,InChIKey=WHCJUIFHMJFEFZ-UIAUGNHASA-N,4.09,9.31,NaN,NaN,NaN,NaN,NaN,NaN,NaN,NaN,NaN,NaN,NaN,NaN
Orotidine,HMDB00788,3.885,1,dd,12.38 2.97,0.1592,-1,OC[C@H]1O[C@H]([C@H](O)[C@@H]1O)N1C(=O)NC(=O)C=C1C(O)=O,InChIKey=FKCRAVPPBFWEJD-XVFCMESISA-N,12.5,-3.6,NaN,NaN,NaN,NaN,NaN,NaN,NaN,NaN,NaN,NaN,NaN,NaN
Prostaglandin E1,HMDB01442,3.885,2,m,NA,0.0215,-1,CCCCC[C@H](O)\C=C\[C@H]1[C@H](O)CC(=O)[C@@H]1CCCCCCC(O)=O,InChIKey=GMVPRGQOIOIIMI-DWKJAMRDSA-N,0.83,4.95,NaN,NaN,NaN,NaN,NaN,NaN,NaN,NaN,NaN,NaN,NaN,NaN
Sucrose,HMDB00258,3.885,1,dd,6.46,0.1336,0,OC[C@H]1O[C@@](CO)(O[C@H]2O[C@H](CO)[C@@H](O)[C@H](O)[C@H]2O)[C@@H](O)[C@@H]1O,InChIKey=CZMRCDWAGMRECN-UGDNZRGBSA-N,8.75,9.83,NaN,5.86275,NaN,NaN,NaN,NaN,NaN,NaN,NaN,NaN,NaN,NaN
Sucrose,HMDB00258,3.885,1,dd,3.25,0.1336,0,OC[C@H]1O[C@@](CO)(O[C@H]2O[C@H](CO)[C@@H](O)[C@H](O)[C@H]2O)[C@@H](O)[C@@H]1O,InChIKey=CZMRCDWAGMRECN-UGDNZRGBSA-N,8.75,9.83,NaN,5.86275,NaN,NaN,NaN,NaN,NaN,NaN,NaN,NaN,NaN,NaN
Thiamine,HMDB00235,3.885,1,t,5.83,0.1324,1,CC1=C(CCO)SC=[N+]1CC1=C(N)N=C(C)N=C1,InChIKey=JZRWCGZRTZMZEH-UHFFFAOYSA-N,4.66,-3,NaN,0.22,NaN,0.247,0.0735,NaN,NaN,NaN,NaN,NaN,NaN,NaN
3-Methoxytyramine,HMDB00022,3.895,2,s,NA,0.3013,1,COC1=C(O)C=CC(CCN)=C1,InChIKey=DIVQKHQLANKJQO-UHFFFAOYSA-N,1.08,-3.6,0.0025,0.6,NaN,NaN,NaN,NaN,NaN,NaN,NaN,NaN,NaN,NaN
Glycocholic acid,HMDB00138,3.895,2,m,NA,0.1522,-1,[H][C@@]12CC[C@H]([C@H](C)CCC(=O)NCC(O)=O)[C@@]1(C)[C@@H](O)C[C@@]1([H])[C@@]2([H])[C@H](O)CC2C[C@H](O)CC[C@]12C,InChIKey=RFDAIACWWDREDC-MZMBZMQMSA-N,4.55,8.85,0.06,0.42,NaN,NaN,NaN,NaN,NaN,NaN,NaN,NaN,NaN,NaN
5-Hydroxylysine,HMDB00450,3.895,13,m,NA,0.721,1,NC[C@H](O)CC[C@H](N)C(O)=O,InChIKey=YSMODUONRAFBET-UHNVWZDZSA-N,1.87,-3,2.5,0.555,NaN,NaN,NaN,NaN,NaN,NaN,NaN,NaN,NaN,NaN
3-Phosphoglyceric acid,HMDB00807,3.895,1,qt,NA,0.1827,-3,OC(COP(O)(O)=O)C(O)=O,InChIKey=OSJPPGNTCRNQQC-UHFFFAOYSA-N,0.95,-3.8,47.2,NaN,NaN,NaN,NaN,NaN,NaN,NaN,NaN,NaN,NaN,NaN
Cellobiose,HMDB00055,3.895,2,m,NA,0.1184,0,OC[C@H]1O[C@@H](O[C@H]2[C@H](O)[C@@H](O)[C@H](O)O[C@@H]2CO)[C@H](O)[C@@H](O)[C@@H]1O,InChIKey=GUBGYTABKSRVRQ-QRZGKKJRSA-N,11.7,1.83,NA,NA,NA,NA,NA,NA,NA,NA,NA,NA,NA,NA
Glucosamine 6-sulfate,HMDB00592,3.895,1,dd,10.48 9.27,0.1984,0,N[C@H]1[C@H](O)O[C@H](COS(O)(=O)=O)[C@@H](O)[C@@H]1O,InChIKey=MTDHILKWIRSIHB-QZABAPFNSA-N,3.2,4.54,NA,NA,NA,NA,NA,NA,NA,NA,NA,NA,NA,NA
N-Acryloylglycine,HMDB01843,3.895,21,d,5.95,1,-1,OC(=O)CNC(=O)C=C,InChIKey=LZCXCXDOGAEFQX-UHFFFAOYSA-N,3.91,10.14,NA,NA,NA,NA,NA,NA,NA,NA,NA,NA,NA,NA
Alpha-D-Glucose,HMDB03345,3.895,1,dd,12.30 2.23,0.4097,0,OC[C@H]1O[C@H](O)[C@H](O)[C@@H](O)[C@@H]1O,InChIKey=WQZGKKKJIJFFOK-DVKNGEFBSA-N,14.58,-3,NaN,NaN,NaN,NaN,NaN,NaN,NaN,NaN,NaN,NaN,NaN,NaN
Chlorogenic acid,HMDB03164,3.895,1,dd,9.72 3.02,0.1173,-1,O[C@@H]1C[C@](O)(C[C@@H](OC(=O)\C=C\C2=CC(O)=C(O)C=C2)[C@@H]1O)C(O)=O,InChIKey=CWVRJTMFETXNAD-JUHZACGLSA-N,14.58,-3,NaN,NaN,NaN,NaN,NaN,NaN,NaN,NaN,NaN,NaN,NaN,NaN
Diethanolamine,HMDB04437,3.895,4,m,NA,0.9958,1,OCCNCCO,InChIKey=ZBCBWPMODOFKDW-UHFFFAOYSA-N,1.86,-6.7,NaN,NaN,NaN,NaN,NaN,NaN,NaN,NaN,NaN,NaN,NaN,NaN
Isobutyryl-L-carnitine,HMDB00736,3.895,3,dd,14.53 8.67,0.0262,0,CC(C)C(=O)OC(CC([O-])=O)C[N+](C)(C)C,InChIKey=LRCNOZRCYBNMEP-UHFFFAOYSA-N,3.65,-3,NaN,NaN,NaN,NaN,NaN,NaN,NaN,NaN,NaN,NaN,NaN,NaN
p-Anisic acid,HMDB01101,3.895,3,s,NA,0.2815,-1,COC1=CC=C(C=C1)C(O)=O,InChIKey=ZEYHEAKUIGZSGI-UHFFFAOYSA-N,3.92,4.11,NaN,NaN,NaN,NaN,NaN,NaN,NaN,NaN,NaN,NaN,NaN,NaN
Uridine diphosphate glucose,HMDB00286,3.895,3,m,NA,0.4272,-2,OC[C@@H]1OC(OP(O)(=O)OP(O)(=O)OC[C@@H]2O[C@@H]([C@@H](O)[C@H]2O)N2C=CC(=O)NC2=O)[C@@H](O)[C@H](O)[C@H]1O,InChIKey=HSCJRCZFDFQWRP-LPTOLDDLSA-N,18.3,0.7,NaN,NaN,NaN,NaN,NaN,NaN,NaN,NaN,NaN,NaN,NaN,NaN
D-Mannose,HMDB00169,3.898,6,dd,4.123 2.118,NA,0,OC[C@H]1OC(O)[C@@H](O)[C@@H](O)[C@@H]1O,InChIKey=WQZGKKKJIJFFOK-QTVWNMPRSA-N,3.66,9.48,39,1.25,NaN,NaN,44,NaN,NaN,NaN,NaN,NaN,NaN,NaN
Chenodeoxycholic acid,HMDB00518,3.9,1,ddd,NA,0.1087,-1,[H][C@@]1(CC[C@@]2([H])[C@]3([H])[C@H](O)C[C@]4([H])C[C@H](O)CC[C@]4(C)[C@@]3([H])CC[C@]12C)[C@H](C)CCC(O)=O,InChIKey=RUDATBOHQWOJDD-BSWAIDMHSA-N,2.15,-4.1,1.165,NaN,NaN,NaN,NaN,NaN,NaN,NaN,NaN,NaN,NaN,NaN
trans-Ferulic acid,HMDB00954,3.901,3,s,NA,1,-1,COC1=C(O)C=CC(\C=C\C(O)=O)=C1,InChIKey=KSEBMYQBYZTDHS-HWKANZROSA-N,0.83,-1.6,0.039,0.5,NaN,NaN,NaN,NaN,NaN,NaN,NaN,NaN,NaN,NaN
D-Glucose,HMDB00122,3.904,8,dd,12.293 2.140,NA,0,OC[C@H]1OC(O)[C@H](O)[C@@H](O)[C@@H]1O,InChIKey=WQZGKKKJIJFFOK-GASJEMHNSA-N,1.89,-6.6,4935.2875,17.15333333,NaN,NA,2340,NaN,NaN,NaN,NaN,NaN,NaN,NaN
Normetanephrine,HMDB00819,3.905,4,s,NA,1,1,COC1=CC(=CC=C1O)C(O)CN,InChIKey=YNYAYWLBAHXHLL-UHFFFAOYSA-N,3.51,-3.7,0.00035,NA,NaN,NaN,NaN,NaN,NaN,NaN,NaN,NaN,NaN,NaN
Flavin Mononucleotide,HMDB01520,3.905,4,m,NA,0.0092,-3,CC1=CC2=C(C=C1C)N(C[C@H](O)[C@H](O)[C@H](O)COP(O)(O)=O)C1=NC(=O)NC(=O)C1=N2,InChIKey=FVTCRASFADXXNN-SCRDCRAPSA-N,0.83,-3.6,0.0075,NaN,NaN,NaN,NaN,NaN,NaN,NaN,NaN,NaN,NaN,NaN
Riboflavin,HMDB00244,3.905,1,m,NA,0.1552,-1,CC1=C(C)C=C2N(C[C@H](O)[C@H](O)[C@H](O)CO)C3=NC(=O)NC(=O)C3=NC2=C1,InChIKey=AUNGANRZJHBGPY-SCRDCRAPSA-N,4.17,-3,0.015,0.18,NaN,0.058,NaN,NaN,NaN,NaN,NaN,NaN,NaN,NaN
FAD,HMDB01248,3.905,1,dd,7.46 4.00,0.1144,-3,CC1=CC2=C(C=C1C)N(C[C@H](O)[C@H](O)[C@H](O)COP(O)(=O)OP(O)(=O)OC[C@H]1O[C@H]([C@H](O)[C@@H]1O)N1C=NC3=C1N=CN=C3N)C1=NC(=O)NC(=O)C1=N2,InChIKey=VWWQXMAJTJZDQX-UYBVJOGSSA-N,10.59,-2.6,0.075,NaN,NaN,NaN,NaN,NaN,NaN,NaN,NaN,NaN,NaN,NaN
Xanthosine,HMDB00299,3.905,12,m,NA,0.2433,0,OC[C@H]1O[C@H]([C@H](O)[C@@H]1O)N1C=NC2=C1N=C(O)N=C2O,InChIKey=UBORTCNDUKBEOP-UUOKFMHZSA-N,4.51,-0.61,5.08,NaN,NaN,NaN,NaN,NaN,NaN,NaN,NaN,NaN,NaN,NaN
L-Aspartic acid,HMDB00191,3.905,2,dd,8.82,0.8254,-1,N[C@@H](CC(O)=O)C(O)=O,InChIKey=CKLJMWTZIZZHCS-REOHCLBHSA-N,1.09,0.078,20.9,3.446,NaN,NA,1.33,NaN,NaN,NaN,NaN,NaN,NaN,NaN
L-Aspartic acid,HMDB00191,3.905,2,dd,3.75,0.8254,-1,N[C@@H](CC(O)=O)C(O)=O,InChIKey=CKLJMWTZIZZHCS-REOHCLBHSA-N,1.09,0.078,20.9,3.446,NaN,NA,1.33,NaN,NaN,NaN,NaN,NaN,NaN,NaN
Betaine,HMDB00043,3.905,15,s,NA,0.1878,0,C[N+](C)(C)CC([O-])=O,InChIKey=KWIUHFFTVRNATP-UHFFFAOYSA-N,4.2,-2.8,62.53333333,49.6,NaN,12.78,NaN,NaN,NaN,NaN,NaN,NaN,NaN,NaN