Metabolite,HMDB Name,Shift (ppm),Hs,Type,J (Hz),Height,Physiological Charge,SMILES,InChlKey,pKa (Strongest Acidic),pKa (Strongest Basic),Blood,Urine,Feces,Saliva,Cerebrospinal Fluid (CSF),Amniotic Fluid,Aqueous Humour,Ascites Fluid,Breast Milk,Lymph,Sweat,Tears
Normetanephrine,HMDB00819,6.965,3,d,1.51,0.3549,1,COC1=CC(=CC=C1O)C(O)CN,InChIKey=YNYAYWLBAHXHLL-UHFFFAOYSA-N,3.51,-3.7,0.00035,NA,NaN,NaN,NaN,NaN,NaN,NaN,NaN,NaN,NaN,NaN
Epinephrine,HMDB00068,6.965,1,d,1.98,0.1771,1,CNC[C@H](O)C1=CC=C(O)C(O)=C1,InChIKey=UCTWMZQNUQWSLP-VIFPVBQESA-N,3.91,-3.6,0.00164,0.004333333,NaN,NaN,0.00012,NaN,NaN,NaN,NaN,NaN,NaN,NaN
Genistein,HMDB03217,6.965,2,d,0.72,0.3388,-1,OC1=CC=C(C=C1)C1=COC2=CC(O)=CC(O)=C2C1=O,InChIKey=TZBJGXHYKVUXJN-UHFFFAOYSA-N,14.58,-3,0.01261,0.23,NaN,NaN,NaN,NaN,NaN,NaN,NaN,NaN,NaN,NaN
5-Methoxydimethyltryptamine,HMDB02004,6.965,1,dd,NA,0.0346,1,COC1=CC2=C(NC=C2CCN(C)C)C=C1,InChIKey=ZSTKHSQDNIGFLM-UHFFFAOYSA-N,0.83,4.99,0.21,0.02,NaN,NaN,NaN,NaN,NaN,NaN,NaN,NaN,NaN,NaN
4-Methoxycinnamic acid,HMDB02040,6.965,2,m,NA,0.1504,-1,COC1=CC=C(\C=C\C(O)=O)C=C1,InChIKey=AFDXODALSZRGIH-QPJJXVBHSA-N,12.45,-3.1,NaN,NaN,NaN,NaN,NaN,NaN,NaN,NaN,NaN,NaN,NaN,NaN
Berberine,HMDB03409,6.965,1,s,NA,0.163,1,COC1=C(OC)C2=C[N+]3=C(C=C2C=C1)C1=CC2=C(OCO2)C=C1CC3,InChIKey=YBHILYKTIRIUTE-UHFFFAOYSA-N,14.58,-3,NaN,NaN,NaN,NaN,NaN,NaN,NaN,NaN,NaN,NaN,NaN,NaN
Guaiacol,HMDB01398,6.965,1,m,NA,0.1213,0,COC1=CC=CC=C1O,InChIKey=LHGVFZTZFXWLCP-UHFFFAOYSA-N,3.93,-3,NaN,NaN,NaN,NaN,NaN,NaN,NaN,NaN,NaN,NaN,NaN,NaN
Homoveratric acid,HMDB00434,6.965,1,d,1.14,0.2436,-1,COC1=CC=C(CC(O)=O)C=C1OC,InChIKey=WUAXWQRULBZETB-UHFFFAOYSA-N,19.52,-0.58,NaN,NaN,NaN,NaN,NaN,NaN,NaN,NaN,NaN,NaN,NaN,NaN
p-Anisic acid,HMDB01101,6.965,2,d,9.02,0.0588,-1,COC1=CC=C(C=C1)C(O)=O,InChIKey=ZEYHEAKUIGZSGI-UHFFFAOYSA-N,3.92,4.11,NaN,NaN,NaN,NaN,NaN,NaN,NaN,NaN,NaN,NaN,NaN,NaN
Sumiki's acid,HMDB02432,6.965,25,d,3.39,0.3738,-1,OCC1=CC=C(O1)C(O)=O,InChIKey=PCSKKIUURRTAEM-UHFFFAOYSA-N,17.11,-6.6,NaN,NaN,NaN,NaN,NaN,NaN,NaN,NaN,NaN,NaN,NaN,NaN
N-Acetylserotonin,HMDB01238,6.968,2,m,NA,0.0465,0,CC(=O)NCCC1=CNC2=C1C=C(O)C=C2,InChIKey=MVAWJSIDNICKHF-UHFFFAOYSA-N,2.7,-1.4,NaN,NaN,NaN,NaN,NaN,NaN,NaN,NaN,NaN,NaN,NaN,NaN
Guaifenesin,HMDB04998,6.975,1,m,NA,0.1456,0,COC1=CC=CC=C1OCC(O)CO,InChIKey=HSRJKNPTNIJEKV-UHFFFAOYSA-N,1.87,10,NA,NA,NA,NA,NA,NA,NA,NA,NA,NA,NA,NA
Imipramine,HMDB01848,6.975,8,t,7.32,0.179,1,CN(C)CCCN1C2=CC=CC=C2CCC2=CC=CC=C12,InChIKey=BCGWQEUPMDMJNV-UHFFFAOYSA-N,2.98,9.73,NA,NA,NA,NA,NA,NA,NA,NA,NA,NA,NA,NA
N.N-Dimethylaniline,HMDB01020,6.975,1,tt,NA,0.027,0,CN(C)C1=CC=CC=C1,InChIKey=JLTDJTHDQAWBAV-UHFFFAOYSA-N,1.16,4.96,NA,NA,NA,NA,NA,NA,NA,NA,NA,NA,NA,NA
3-Phenoxypropionic acid,HMDB02229,6.985,1,m,NA,0.7998,-1,OC(=O)CCOC1=CC=CC=C1,InChIKey=BUSOTUQRURCMCM-UHFFFAOYSA-N,2.84,6.63,NA,NA,NA,NA,NA,NA,NA,NA,NA,NA,NA,NA
Guaifenesin,HMDB04998,6.985,1,m,NA,0.1016,0,COC1=CC=CC=C1OCC(O)CO,InChIKey=HSRJKNPTNIJEKV-UHFFFAOYSA-N,1.87,10,NA,NA,NA,NA,NA,NA,NA,NA,NA,NA,NA,NA
3-(3-Hydroxyphenyl)-3-hydroxypropanoic acid,HMDB02643,6.985,1,d,7.65,0.6652,-1,OC(CC(O)=O)C1=CC(O)=CC=C1,InChIKey=KHTAGVZHYUZYMF-UHFFFAOYSA-N,8.27,-2.8,NaN,8.275,NaN,NaN,NaN,NaN,NaN,NaN,NaN,NaN,NaN,NaN
Salicylic acid,HMDB01895,6.985,43,m,NA,1,-1,OC(=O)C1=CC=CC=C1O,InChIKey=YGSDEFSMJLZEOE-UHFFFAOYSA-N,2.83,0.22,NaN,1.1,NaN,NaN,NaN,NaN,NaN,NaN,NaN,NaN,NaN,NaN
Verapamil,HMDB01850,6.985,2,m,NA,0.241,1,COC1=C(OC)C=C(CCN(C)CCCC(C#N)(C(C)C)C2=CC(OC)=C(OC)C=C2)C=C1,InChIKey=SGTNSNPWRIOYBX-UHFFFAOYSA-N,12.45,-0.16,NaN,NaN,NaN,NaN,NaN,NaN,NaN,NaN,NaN,NaN,NaN,NaN
Lansoprazole,HMDB05008,6.995,1,d,5.72,0.077,0,CC1=C(OCC(F)(F)F)C=CN=C1CS(=O)C1=NC2=CC=CC=C2N1,InChIKey=MJIHNNLFOKEZEW-UHFFFAOYSA-N,1.87,10,NA,NA,NA,NA,NA,NA,NA,NA,NA,NA,NA,NA
3-Aminosalicylic acid,HMDB01972,6.995,10,dd,7.64 1.28,0.2399,-1,NC1=CC=CC(C(O)=O)=C1O,InChIKey=IQGMRVWUTCYCST-UHFFFAOYSA-N,18.2,12.44,NaN,NaN,NaN,NaN,NaN,NaN,NaN,NaN,NaN,NaN,NaN,NaN
3-Hydroxymandelic acid,HMDB00750,6.995,1,d,7.65,0.3306,-1,OC(C(O)=O)C1=CC(O)=CC=C1,InChIKey=OLSDAJRAVOVKLG-UHFFFAOYSA-N,3.37,5.02,NaN,NaN,NaN,NaN,NaN,NaN,NaN,NaN,NaN,NaN,NaN,NaN
3-Indolebutyric acid,HMDB02096,6.995,1,m,NA,0.3368,-1,OC(=O)CCCC1=CNC2=CC=CC=C12,InChIKey=JTEDVYBZBROSJT-UHFFFAOYSA-N,3.62,-3.6,NaN,NaN,NaN,NaN,NaN,NaN,NaN,NaN,NaN,NaN,NaN,NaN
Gentisic acid,HMDB00152,6.995,1,dd,8.77 3.14,0.6819,-1,OC(=O)C1=CC(O)=CC=C1O,InChIKey=WXTMDXOMEHJXQO-UHFFFAOYSA-N,1.54,-0.88,NaN,1.35,NaN,NaN,NaN,NaN,NaN,NaN,NaN,NaN,NaN,NaN
Menadione,HMDB01892,6.995,1,br. s.,NA,0.1446,0,CC1=CC(=O)C2=CC=CC=C2C1=O,InChIKey=MJVAVZPDRWSRRC-UHFFFAOYSA-N,16.84,-3.7,NaN,NaN,NaN,NaN,NaN,NaN,NaN,NaN,NaN,NaN,NaN,NaN
Omeprazole,HMDB01913,6.995,1,dd,8.94 2.39,0.0396,0,COC1=CC2=C(C=C1)N=C(N2)S(=O)CC1=NC=C(C)C(OC)=C1C,InChIKey=SUBDBMMJDZJVOS-UHFFFAOYSA-N,3.26,-3.8,NaN,NaN,NaN,NaN,NaN,NaN,NaN,NaN,NaN,NaN,NaN,NaN
Phenylephrine,HMDB02182,6.995,1,d,7.5,0.1214,1,CNC[C@H](O)C1=CC(O)=CC=C1,InChIKey=SONNWYBIRXJNDC-VIFPVBQESA-N,4.82,9.25,NaN,NaN,NaN,NaN,NaN,NaN,NaN,NaN,NaN,NaN,NaN,NaN
3-Methoxytyramine,HMDB00022,7.005,1,d,1.81,0.0571,1,COC1=C(O)C=CC(CCN)=C1,InChIKey=DIVQKHQLANKJQO-UHFFFAOYSA-N,1.08,-3.6,0.0025,0.6,NaN,NaN,NaN,NaN,NaN,NaN,NaN,NaN,NaN,NaN
Clotrimazole,HMDB01922,7.005,1,dd,8.03 1.49,0.0857,0,ClC1=CC=CC=C1C(N1C=CN=C1)(C1=CC=CC=C1)C1=CC=CC=C1,InChIKey=VNFPBHJOKIVQEB-UHFFFAOYSA-N,10.23,-1.7,NA,NA,NA,NA,NA,NA,NA,NA,NA,NA,NA,NA
2.4-Dichlorophenol,HMDB04811,7.005,1,d,8.8,0.1877,0,OC1=CC=C(Cl)C=C1Cl,InChIKey=HFZWRUODUSTPEG-UHFFFAOYSA-N,1.86,-4.8,NaN,NaN,NaN,NaN,NaN,NaN,NaN,NaN,NaN,NaN,NaN,NaN
Homoveratric acid,HMDB00434,7.005,1,d,8.19,0.2165,-1,COC1=CC=C(CC(O)=O)C=C1OC,InChIKey=WUAXWQRULBZETB-UHFFFAOYSA-N,19.52,-0.58,NaN,NaN,NaN,NaN,NaN,NaN,NaN,NaN,NaN,NaN,NaN,NaN
Thymol,HMDB01878,7.005,3,s,NA,0.6951,0,CC(C)C1=C(O)C=C(C)C=C1,InChIKey=MGSRCZKZVOBKFT-UHFFFAOYSA-N,0.81,4.95,NaN,NaN,NaN,NaN,NaN,NaN,NaN,NaN,NaN,NaN,NaN,NaN
Xanthurenic acid,HMDB00881,7.005,24,dd,7.69 0.87,0.3747,-1,OC(=O)C1=NC2=C(O)C=CC=C2C(O)=C1,InChIKey=FBZONXHGGPHHIY-UHFFFAOYSA-N,8.16,-1.6,NaN,1.28,NaN,NaN,NaN,NaN,NaN,NaN,NaN,NaN,NaN,NaN
2-Furoic acid,HMDB00617,7.009,1,dd,3.43 0.79,1,-1,OC(=O)C1=CC=CO1,InChIKey=SMNDYUVBFMFKNZ-UHFFFAOYSA-N,3.58,0.02,NaN,NaN,NaN,NaN,NaN,NaN,NaN,NaN,NaN,NaN,NaN,NaN
5-Hydroxytryptophol,HMDB01855,7.015,1,s,NA,0.2075,0,OCCC1=CNC2=CC=C(O)C=C12,InChIKey=KQROHCSYOGBQGJ-UHFFFAOYSA-N,1.44,-2.9,9.00E-04,NaN,NaN,NaN,0.004,NaN,NaN,NaN,NaN,NaN,NaN,NaN
3-Nitrotyrosine,HMDB01904,7.015,1,d,8.74,0.8318,-1,N[C@@H](CC1=CC(=C(O)C=C1)[N+]([O-])=O)C(O)=O,InChIKey=FBTSQILOGYXGMD-LURJTMIESA-N,3.73,-1.4,0.85,NaN,NaN,NaN,3.36,NaN,NaN,NaN,NaN,NaN,NaN,NaN
1-Methylhistidine,HMDB00001,7.015,1,s,NA,0.2369,0,CN1C=NC(C[C@H](N)C(O)=O)=C1,InChIKey=BRMWTNUJHUMWMS-LURJTMIESA-N,1.86,-3,13.1,23.87,NaN,26.34,4,NaN,NaN,NaN,NaN,NaN,NaN,NaN
Furosemide,HMDB01933,7.015,1,s,NA,0.1164,-1,NS(=O)(=O)C1=C(Cl)C=C(NCC2=CC=CO2)C(=C1)C(O)=O,InChIKey=ZZUFCTLCJUWOSV-UHFFFAOYSA-N,3.13,4.99,NA,NA,NA,NA,NA,NA,NA,NA,NA,NA,NA,NA
Propranolol,HMDB01849,7.015,1,d,7.62,0.2386,1,CC(C)NCC(O)COC1=CC=CC2=CC=CC=C12,InChIKey=AQHHHDLHHXJYJD-UHFFFAOYSA-N,3.16,-4.2,NaN,NaN,NaN,NaN,NaN,NaN,NaN,NaN,NaN,NaN,NaN,NaN
Methylimidazoleacetic acid,HMDB02820,7.025,1,s,NA,0.1223,-1,CN1C=NC(CC(O)=O)=C1,InChIKey=ZHCKPJGJQOPTLB-UHFFFAOYSA-N,11.41,-3.7,0.08457,1.6575,NaN,NaN,NaN,NaN,NaN,NaN,NaN,NaN,NaN,NaN
Clotrimazole,HMDB01922,7.025,1,t,1.24,0.0857,0,ClC1=CC=CC=C1C(N1C=CN=C1)(C1=CC=CC=C1)C1=CC=CC=C1,InChIKey=VNFPBHJOKIVQEB-UHFFFAOYSA-N,10.23,-1.7,NA,NA,NA,NA,NA,NA,NA,NA,NA,NA,NA,NA
(+)-(S)-Carvone,HMDB04487,7.025,1,br. s.,NA,0.0438,0,CC(=C)[C@H]1CC=C(C)C(=O)C1,InChIKey=ULDHMXUKGWMISQ-VIFPVBQESA-N,1.86,-6.7,NaN,NaN,NaN,NaN,NaN,NaN,NaN,NaN,NaN,NaN,NaN,NaN
13-cis-Retinoic acid,HMDB06219,7.025,1,dd,NA,0.0217,-1,C\C(\C=C\C1=C(C)CCCC1(C)C)=C/C=C/C(/C)=C\C(O)=O,InChIKey=SHGAZHPCJJPHSC-XFYACQKRSA-N,0.38,-3.7,NaN,NaN,NaN,NaN,NaN,NaN,NaN,NaN,NaN,NaN,NaN,NaN
3-Indolebutyric acid,HMDB02096,7.025,1,s,NA,0.5486,-1,OC(=O)CCCC1=CNC2=CC=CC=C12,InChIKey=JTEDVYBZBROSJT-UHFFFAOYSA-N,3.62,-3.6,NaN,NaN,NaN,NaN,NaN,NaN,NaN,NaN,NaN,NaN,NaN,NaN
Atenolol,HMDB01924,7.025,2,m,NA,0.5343,1,CC(C)NCC(O)COC1=CC=C(CC(N)=O)C=C1,InChIKey=METKIMKYRPQLGS-UHFFFAOYSA-N,15.74,-0.94,NaN,NaN,NaN,NaN,NaN,NaN,NaN,NaN,NaN,NaN,NaN,NaN
Salicyluric acid,HMDB00840,7.025,2,dd,7.48 7.14,0.9631,-1,OC(=O)CNC(=O)C1=CC=CC=C1O,InChIKey=ONJSZLXSECQROL-UHFFFAOYSA-N,3.7,5.43,NaN,NaN,NaN,NaN,NaN,NaN,NaN,NaN,NaN,NaN,NaN,NaN
5-Methoxytryptophol,HMDB01896,7.035,1,d,2.42,0.1294,0,COC1=CC=C2NC=C(CCO)C2=C1,InChIKey=QLWKTGDEPLRFAT-UHFFFAOYSA-N,16.44,-0.18,0.00015,NaN,NaN,NaN,NaN,NaN,NaN,NaN,NaN,NaN,NaN,NaN
Indole-3-carbinol,HMDB05785,7.035,1,t,7.46,0.0751,0,OCC1=CNC2=CC=CC=C12,InChIKey=IVYPNXXAYMYVSP-UHFFFAOYSA-N,1.87,10,NA,NA,NA,NA,NA,NA,NA,NA,NA,NA,NA,NA
Salicin,HMDB03546,7.035,1,td,NA,0.0868,0,OC[C@H]1O[C@@H](OC2=C(CO)C=CC=C2)[C@H](O)[C@@H](O)[C@@H]1O,InChIKey=NGFMICBWJRZIBI-UJPOAAIJSA-N,14.58,-3,NA,NA,NA,NA,NA,NA,NA,NA,NA,NA,NA,NA
3-Chlorotyrosine,HMDB01885,7.035,2,dd,8.27 2.09,0.5043,0,NC(CC1=CC(Cl)=C(O)C=C1)C(O)=O,InChIKey=ACWBBAGYTKWBCD-UHFFFAOYSA-N,18.22,-0.88,NaN,7.00E-04,NaN,NaN,NaN,NaN,NaN,NaN,NaN,NaN,NaN,NaN
3-Methoxy-4-Hydroxyphenylglycol sulfate,HMDB03332,7.035,1,dd,8.25 1.93,0.0894,-1,COC1=C(O)C=CC(=C1)C(CO)OS(O)(=O)=O,InChIKey=SBKADJXSGGTEPN-UHFFFAOYSA-N,14.58,-3,NaN,NaN,NaN,NaN,NaN,NaN,NaN,NaN,NaN,NaN,NaN,NaN
All-trans-retinoic acid,HMDB01852,7.035,1,dd,15.06 11.54,0.0645,-1,C\C(\C=C\C1=C(C)CCCC1(C)C)=C/C=C/C(/C)=C/C(O)=O,InChIKey=SHGAZHPCJJPHSC-YCNIQYBTSA-N,10.09,5.81,NaN,NaN,NaN,NaN,NaN,NaN,NaN,NaN,NaN,NaN,NaN,NaN
Hydroxykynurenine,HMDB00732,7.035,1,d,NA,0.0476,0,NC(CC(=O)C1=C(N)C(O)=CC=C1)C(O)=O,InChIKey=VCKPUUFAIGNJHC-UHFFFAOYSA-N,0.83,-3.3,NaN,NaN,NaN,NaN,NaN,NaN,NaN,NaN,NaN,NaN,NaN,NaN
Vanillylmandelic acid,HMDB00291,7.039,2,d,1.54,0.1899,-1,COC1=C(O)C=CC(=C1)[C@H](O)C(O)=O,InChIKey=CGQCWMIAEPEHNQ-QMMMGPOBSA-N,8.93,-3.7,NaN,NA,NaN,NaN,NaN,NaN,NaN,NaN,NaN,NaN,NaN,NaN
5-Methoxytryptophol,HMDB01896,7.045,1,s,NA,0.1294,0,COC1=CC=C2NC=C(CCO)C2=C1,InChIKey=QLWKTGDEPLRFAT-UHFFFAOYSA-N,16.44,-0.18,0.00015,NaN,NaN,NaN,NaN,NaN,NaN,NaN,NaN,NaN,NaN,NaN
1-Methylhistamine,HMDB00898,7.045,1,br. s.,NA,0.1844,1,CN1C=NC(CCN)=C1,InChIKey=FHQDWPCFSJMNCT-UHFFFAOYSA-N,1.78,-1.2,0.00034,0.097666667,NaN,0.0117,0.002,NaN,NaN,NaN,NaN,NaN,NaN,NaN
Estriol,HMDB00153,7.045,1,d,8.47,0.1493,0,[H][C@@]12C[C@@H](O)[C@H](O)[C@@]1(C)CC[C@]1([H])C3=C(CC[C@@]21[H])C=C(O)C=C3,InChIKey=PROQIPRRNZUXQM-ZXXIGWHRSA-N,2.84,5.54,0.006,NaN,NaN,NaN,NaN,0.0023,NaN,NaN,NaN,NaN,NaN,NaN
5-Hydroxyindoleacetic acid,HMDB00763,7.045,1,d,2.26,0.2878,-1,OC(=O)CC1=CNC2=CC=C(O)C=C12,InChIKey=DUUGKQCEGZLZNO-UHFFFAOYSA-N,3.16,4.95,0.0516,1.55,NaN,NaN,0.082666667,NaN,NaN,NaN,NaN,NaN,NaN,NaN
16b-Hydroxyestradiol,HMDB00347,7.045,1,d,8.47,0.1365,0,[H][C@@]12C[C@H](O)[C@H](O)[C@@]1(C)CC[C@]1([H])C3=C(CC[C@@]21[H])C=C(O)C=C3,InChIKey=PROQIPRRNZUXQM-ZMSHIADSSA-N,11.47,-3.8,NaN,NaN,NaN,NaN,NaN,NaN,NaN,NaN,NaN,NaN,NaN,NaN
Gallic acid,HMDB05807,7.045,2,s,NA,1,-1,OC(=O)C1=CC(O)=C(O)C(O)=C1,InChIKey=LNTHITQWFMADLM-UHFFFAOYSA-N,1.87,10,NaN,NaN,NaN,NaN,NaN,NaN,NaN,NaN,NaN,NaN,NaN,NaN
Liothyronine,HMDB00265,7.045,1,d,2.97,0.1289,0,N[C@@H](CC1=CC(I)=C(OC2=CC=C(O)C(I)=C2)C(I)=C1)C(O)=O,InChIKey=AUYYCJSJGJYCDS-LBPRGKRZSA-N,1.86,-2.8,NaN,NaN,NaN,0,NaN,NaN,NaN,NaN,NaN,NaN,NaN,NaN
Verapamil,HMDB01850,7.045,2,d,NA,0.1932,1,COC1=C(OC)C=C(CCN(C)CCCC(C#N)(C(C)C)C2=CC(OC)=C(OC)C=C2)C=C1,InChIKey=SGTNSNPWRIOYBX-UHFFFAOYSA-N,12.45,-0.16,NaN,NaN,NaN,NaN,NaN,NaN,NaN,NaN,NaN,NaN,NaN,NaN
Epicatechin,HMDB01871,7.055,2,d,1.24,0.7849,0,O[C@@H]1CC2=C(O)C=C(O)C=C2O[C@@H]1C1=CC(O)=C(O)C=C1,InChIKey=PFTAWBLQPZVEMU-UKRRQHHQSA-N,1.73,4.95,0.625,0.13,NaN,NaN,NaN,NaN,NaN,NaN,NaN,NaN,NaN,NaN
17-Epiestriol,HMDB00356,7.055,1,d,8.47,0.1545,0,C[C@]12CCC3C(CCC4=C3C=CC(O)=C4)C1C[C@@H](O)[C@H]2O,InChIKey=PROQIPRRNZUXQM-MAHASAQBSA-N,4.09,-3.5,NA,NA,NA,NA,NA,NA,NA,NA,NA,NA,NA,NA
16a-Hydroxyestrone,HMDB00335,7.055,1,d,NA,0.0494,0,[H][C@@]12C[C@@H](O)C(=O)[C@@]1(C)CC[C@]1([H])C3=C(CC[C@@]21[H])C=C(O)C=C3,InChIKey=WPOCIZJTELRQMF-QFXBJFAPSA-N,4.48,9.66,NaN,NaN,NaN,NaN,NaN,NaN,NaN,NaN,NaN,NaN,NaN,NaN
Isoferulic acid,HMDB00955,7.055,1,d,8.1,0.2285,-1,COC1=C(O)C=C(\C=C\C(O)=O)C=C1,InChIKey=QURCVMIEKCOAJU-HWKANZROSA-N,3.24,-6.3,NaN,NaN,NaN,NaN,NaN,NaN,NaN,NaN,NaN,NaN,NaN,NaN
Phloretin,HMDB03306,7.055,2,d,8.47,0.3455,0,OC1=CC=C(CCC(=O)C2=C(O)C=C(O)C=C2O)C=C1,InChIKey=VGEREEWJJVICBM-UHFFFAOYSA-N,14.58,-3,NaN,NaN,NaN,NaN,NaN,NaN,NaN,NaN,NaN,NaN,NaN,NaN
Deacetyldiltiazem,HMDB02873,7.06,2,d,8.79,0.1251,1,COC1=CC=C(C=C1)[C@@H]1SC2=CC=CC=C2N(CCN(C)C)C(=O)[C@@H]1O,InChIKey=NZHUXMZTSSZXSB-MOPGFXCFSA-N,2.52,-4,NA,NA,NA,NA,NA,NA,NA,NA,NA,NA,NA,NA
3-Methylhistidine,HMDB00479,7.065,1,s,NA,0.2559,0,CN1C=NC=C1C[C@H](N)C(O)=O,InChIKey=JDHILDINMRGULE-LURJTMIESA-N,1.82,5.16,2.7,5.26,NaN,27.68,NaN,NaN,NaN,NaN,NaN,NaN,NaN,NaN
Imipramine,HMDB01848,7.065,8,d,7.82,0.2186,1,CN(C)CCCN1C2=CC=CC=C2CCC2=CC=CC=C12,InChIKey=BCGWQEUPMDMJNV-UHFFFAOYSA-N,2.98,9.73,NA,NA,NA,NA,NA,NA,NA,NA,NA,NA,NA,NA
N.N-Dimethylaniline,HMDB01020,7.065,2,m,NA,0.0496,0,CN(C)C1=CC=CC=C1,InChIKey=JLTDJTHDQAWBAV-UHFFFAOYSA-N,1.16,4.96,NA,NA,NA,NA,NA,NA,NA,NA,NA,NA,NA,NA
3-Indolebutyric acid,HMDB02096,7.075,1,m,NA,0.2939,-1,OC(=O)CCCC1=CNC2=CC=CC=C12,InChIKey=JTEDVYBZBROSJT-UHFFFAOYSA-N,3.62,-3.6,NaN,NaN,NaN,NaN,NaN,NaN,NaN,NaN,NaN,NaN,NaN,NaN
Caffeic acid,HMDB01964,7.075,18,dd,8.26 1.94,0.5292,-1,OC(=O)\C=C/C1=CC=C(O)C(O)=C1,InChIKey=QAIPRVGONGVQAS-RQOWECAXSA-N,19.34,-1.6,NaN,NaN,NaN,NaN,NaN,NaN,NaN,NaN,NaN,NaN,NaN,NaN
Homocarnosine,HMDB00745,7.075,7,s,NA,0.242,0,NCCCC(=O)N[C@@H](CC1=CNC=N1)C(O)=O,InChIKey=CCLQKVKJOGVQLU-QMMMGPOBSA-N,-1.3,-1.2,NaN,NaN,NaN,NaN,NaN,NaN,NaN,NaN,NaN,NaN,NaN,NaN
Verapamil,HMDB01850,7.075,1,dd,NA,0.115,1,COC1=C(OC)C=C(CCN(C)CCCC(C#N)(C(C)C)C2=CC(OC)=C(OC)C=C2)C=C1,InChIKey=SGTNSNPWRIOYBX-UHFFFAOYSA-N,12.45,-0.16,NaN,NaN,NaN,NaN,NaN,NaN,NaN,NaN,NaN,NaN,NaN,NaN
Citalopram,HMDB05038,7.085,2,m,NA,0.0253,1,CN(C)CCCC1(OCC2=C1C=CC(=C2)C#N)C1=CC=C(F)C=C1,InChIKey=WSEQXVZVJXJVFP-UHFFFAOYSA-N,1.87,10,NA,NA,NA,NA,NA,NA,NA,NA,NA,NA,NA,NA
17a-Estradiol,HMDB00429,7.085,1,d,8.47,0.1068,0,[H][C@@]12CC[C@@H](O)[C@@]1(C)CC[C@]1([H])C3=C(CC[C@@]21[H])C=C(O)C=C3,InChIKey=VOXZDWNPVJITMN-SFFUCWETSA-N,1.22,-6.1,NaN,2.3,NaN,NaN,NaN,NaN,NaN,NaN,NaN,NaN,NaN,NaN
3-Methylhistamine,HMDB01861,7.085,1,s,NA,0.1239,2,CN1C=NC=C1CCN,InChIKey=CPAGZVLINCPJEH-UHFFFAOYSA-N,3.24,4.95,NaN,NaN,NaN,NaN,NaN,NaN,NaN,NaN,NaN,NaN,NaN,NaN
Normetanephrine,HMDB00819,7.095,2,s,NA,0.2792,1,COC1=CC(=CC=C1O)C(O)CN,InChIKey=YNYAYWLBAHXHLL-UHFFFAOYSA-N,3.51,-3.7,0.00035,NA,NaN,NaN,NaN,NaN,NaN,NaN,NaN,NaN,NaN,NaN
3-Methylphenylacetic acid,HMDB02222,7.095,1,d,7.43,0.095,-1,CC1=CC(CC(O)=O)=CC=C1,InChIKey=GJMPSRSMBJLKKB-UHFFFAOYSA-N,11.92,0.019,NA,NA,NA,NA,NA,NA,NA,NA,NA,NA,NA,NA
m-Coumaric acid,HMDB01713,7.095,1,s,NA,1,-1,OC(=O)\C=C\C1=CC=CC(O)=C1,InChIKey=KKSDGJDHHZEWEP-SNAWJCMRSA-N,9.43,1.59,NaN,0.065142857,NaN,NaN,NaN,NaN,NaN,NaN,NaN,NaN,NaN,NaN
Methyl propenyl ketone,HMDB01184,7.095,1,m,NA,0.0943,0,C\C=C\C(C)=O,InChIKey=LABTWGUMFABVFG-ONEGZZNKSA-N,11.5,9.43,NaN,NaN,NaN,NaN,NaN,NaN,NaN,NaN,NaN,NaN,NaN,NaN
Hydrochlorothiazide,HMDB01928,7.103,1,s,NA,0.3687,0,NS(=O)(=O)C1=C(Cl)C=C2NCNS(=O)(=O)C2=C1,InChIKey=JZUFKLXOESDKRF-UHFFFAOYSA-N,11.63,-4.5,NaN,NaN,NaN,NaN,NaN,NaN,NaN,NaN,NaN,NaN,NaN,NaN
Carnosine,HMDB00033,7.105,1,s,NA,0.4358,0,NCCC(=O)N[C@@H](CC1=CN=CN1)C(O)=O,InChIKey=CQOVPNPJLQNMDC-ZETCQYMHSA-N,1.86,8.86,6.54,1.84,NaN,NaN,NaN,NaN,NaN,NaN,NaN,NaN,NaN,NaN
L-Histidine,HMDB00177,7.105,1,d,0.58,1,0,N[C@@H](CC1=CNC=N1)C(O)=O,InChIKey=HNDVDQJCIGZPNO-YFKPBYRVSA-N,14.58,-3,118.7666667,60.60726667,NaN,NA,11.4,NaN,NaN,NaN,NaN,NaN,NaN,NaN
Metoprolol,HMDB01932,7.105,2,dd,8.69 2.33,0.1374,1,COCCC1=CC=C(OCC(O)CNC(C)C)C=C1,InChIKey=IUBSYMUCCVWXPE-UHFFFAOYSA-N,0.83,7.85,NaN,NaN,NaN,NaN,NaN,NaN,NaN,NaN,NaN,NaN,NaN,NaN
Omeprazole,HMDB01913,7.105,1,d,2.09,0.0452,0,COC1=CC2=C(C=C1)N=C(N2)S(=O)CC1=NC=C(C)C(OC)=C1C,InChIKey=SUBDBMMJDZJVOS-UHFFFAOYSA-N,3.26,-3.8,NaN,NaN,NaN,NaN,NaN,NaN,NaN,NaN,NaN,NaN,NaN,NaN
Serotonin,HMDB00259,7.105,1,d,2.4,0.4711,1,NCCC1=CNC2=CC=C(O)C=C12,InChIKey=QZAYGJVTTNCVMB-UHFFFAOYSA-N,4.51,-0.4,NaN,0.065,NaN,NaN,0.00345,NaN,NaN,NaN,NaN,NaN,NaN,NaN
Indole-3-carbinol,HMDB05785,7.115,1,t,NA,0.0685,0,OCC1=CNC2=CC=CC=C12,InChIKey=IVYPNXXAYMYVSP-UHFFFAOYSA-N,1.87,10,NA,NA,NA,NA,NA,NA,NA,NA,NA,NA,NA,NA
Naproxen,HMDB01923,7.115,1,dd,NA,0.037,-1,COC1=CC2=C(C=C1)C=C(C=C2)[C@H](C)C(O)=O,InChIKey=CMWTZPSULFXXJA-VIFPVBQESA-N,0.87,-0.34,NaN,NaN,NaN,NaN,NaN,NaN,NaN,NaN,NaN,NaN,NaN,NaN
p-Cresol sulfate,HMDB11635,7.115,3,d,8.05,0.3886,-1,CC1=CC=C(OS(O)(=O)=O)C=C1,InChIKey=WGNAKZGUSRVWRH-UHFFFAOYSA-N,1.86,-3,NaN,NaN,NaN,14.22,NaN,NaN,NaN,NaN,NaN,NaN,NaN,NaN
trans-Ferulic acid,HMDB00954,7.122,1,dd,8.21,0.0923,-1,COC1=C(O)C=CC(\C=C\C(O)=O)=C1,InChIKey=KSEBMYQBYZTDHS-HWKANZROSA-N,0.83,-1.6,0.039,0.5,NaN,NaN,NaN,NaN,NaN,NaN,NaN,NaN,NaN,NaN
trans-Ferulic acid,HMDB00954,7.122,1,dd,1.85,0.0923,-1,COC1=C(O)C=CC(\C=C\C(O)=O)=C1,InChIKey=KSEBMYQBYZTDHS-HWKANZROSA-N,0.83,-1.6,0.039,0.5,NaN,NaN,NaN,NaN,NaN,NaN,NaN,NaN,NaN,NaN
Ibuprofen,HMDB01925,7.125,2,d,8.1,0.2058,-1,CC(C)CC1=CC=C(C=C1)C(C)C(O)=O,InChIKey=HEFNNWSXXWATRW-UHFFFAOYSA-N,12.2,3.34,242,NaN,NaN,NaN,NaN,NaN,NaN,NaN,NaN,NaN,NaN,NaN
Imipramine,HMDB01848,7.125,7,m,NA,0.1805,1,CN(C)CCCN1C2=CC=CC=C2CCC2=CC=CC=C12,InChIKey=BCGWQEUPMDMJNV-UHFFFAOYSA-N,2.98,9.73,NA,NA,NA,NA,NA,NA,NA,NA,NA,NA,NA,NA
Tryptophanol,HMDB03447,7.125,1,s,NA,0.1578,0,OCCC1=CNC2=CC=CC=C12,InChIKey=MBBOMCVGYCRMEA-UHFFFAOYSA-N,14.58,-3,NA,NA,NA,NA,NA,NA,NA,NA,NA,NA,NA,NA
Anserine,HMDB00194,7.135,1,d,0.99,0.1532,0,CN1C=NC=C1C[C@H](NC(=O)CCN)C(O)=O,InChIKey=MYYIAHXIVFADCU-QMMMGPOBSA-N,0.9,-3.6,41,NA,NaN,NaN,NaN,NaN,NaN,NaN,NaN,NaN,NaN,NaN
3-Methylphenylacetic acid,HMDB02222,7.135,2,m,NA,0.2543,-1,CC1=CC(CC(O)=O)=CC=C1,InChIKey=GJMPSRSMBJLKKB-UHFFFAOYSA-N,11.92,0.019,NA,NA,NA,NA,NA,NA,NA,NA,NA,NA,NA,NA
Chlorogenic acid,HMDB03164,7.135,1,dd,NA,0.173,-1,O[C@@H]1C[C@](O)(C[C@@H](OC(=O)\C=C\C2=CC(O)=C(O)C=C2)[C@@H]1O)C(O)=O,InChIKey=CWVRJTMFETXNAD-JUHZACGLSA-N,14.58,-3,NaN,NaN,NaN,NaN,NaN,NaN,NaN,NaN,NaN,NaN,NaN,NaN
Loratadine,HMDB05000,7.135,1,d,NA,0.0687,0,CCOC(=O)N1CCC(CC1)=C1C2=C(CCC3=CC=CN=C13)C=C(Cl)C=C2,InChIKey=JCCNYMKQOSZNPW-UHFFFAOYSA-N,1.87,10,NaN,NaN,NaN,NaN,NaN,NaN,NaN,NaN,NaN,NaN,NaN,NaN
Retinal,HMDB01358,7.135,1,dd,NA,0.0262,0,C\C(\C=C\C=C(/C)\C=C\C1=C(C)CCCC1(C)C)=C/C=O,InChIKey=NCYCYZXNIZJOKI-OVSJKPMPSA-N,1.48,10.78,NaN,NaN,NaN,NaN,NaN,NaN,NaN,NaN,NaN,NaN,NaN,NaN
Thyroxine,HMDB00248,7.145,2,s,NA,0.3002,0,N[C@@H](CC1=CC(I)=C(OC2=CC(I)=C(O)C(I)=C2)C(I)=C1)C(O)=O,InChIKey=XUIIKFGFIJCVMT-LBPRGKRZSA-N,16.07,-5.9,2.00E-05,0.00032,NaN,0,NaN,NaN,NaN,NaN,NaN,NaN,NaN,NaN
5-Hydroxy-L-tryptophan,HMDB00472,7.145,15,d,2.2,0.9048,0,NC(CC1=CNC2=C1C=C(O)C=C2)C(O)=O,InChIKey=LDCYZAJDBXYCGN-UHFFFAOYSA-N,4.65,9.53,0.018,0.0078,NaN,NaN,NaN,NaN,NaN,NaN,NaN,NaN,NaN,NaN
p-Cresol,HMDB01858,7.145,2,dd,8.61 0.58,0.1911,0,CC1=CC=C(O)C=C1,InChIKey=IWDCLRJOBJJRNH-UHFFFAOYSA-N,11.3,10.32,NaN,26.365,NaN,NaN,NaN,NaN,NaN,NaN,NaN,NaN,NaN,NaN
Syringic acid,HMDB02085,7.145,1,s,NA,0.2305,-1,COC1=CC(=CC(OC)=C1O)C(O)=O,InChIKey=JMSVCTWVEWCHDZ-UHFFFAOYSA-N,15.93,-3,NaN,1.5,NaN,NaN,NaN,NaN,NaN,NaN,NaN,NaN,NaN,NaN
Venlafaxine,HMDB05016,7.145,2,d,8.69,0.0805,1,COC1=CC=C(C=C1)C(CN(C)C)C1(O)CCCCC1,InChIKey=PNVNVHUZROJLTJ-UHFFFAOYSA-N,1.87,10,NaN,NaN,NaN,NaN,NaN,NaN,NaN,NaN,NaN,NaN,NaN,NaN
Histamine,HMDB00870,7.155,1,s,NA,0.4052,1,NCCC1=CNC=N1,InChIKey=NTYJJOPFIAHURM-UHFFFAOYSA-N,0.83,-2.9,0.00067,10.411,NaN,3.44,0.2335,NaN,NaN,NaN,NaN,NaN,NaN,NaN
5-Hydroxytryptophol,HMDB01855,7.155,1,dd,8.64 0.39,0.1714,0,OCCC1=CNC2=CC=C(O)C=C12,InChIKey=KQROHCSYOGBQGJ-UHFFFAOYSA-N,1.44,-2.9,9.00E-04,NaN,NaN,NaN,0.004,NaN,NaN,NaN,NaN,NaN,NaN,NaN
Hydroxycobalamin,HMDB02308,7.155,1,s,NA,0.0124,2,[Co++].O.OC[C@H]1O[C@@]([H])([C@H](O)[C@]1([H])OP(=O)([O-])O[C@H](C)CNC(=O)CC[C@]1(C)[C@@H](CC(=O)N)[C@@]2([H])[N-]\C1=C(C)/C1=N/C(=C\C3=N\C(=C(C)/C4=N[C@]2(C)[C@@](C)(CC(=O)N)[C@@H]4CCC(=O)N)\[C@@](C)(CC(=O)N)[C@@H]3CCC(=O)N)/C(C)(C)[C@@H]1CCC(=O)N)N1C=NC2=C1C=C(C)C(C)=C2,InChIKey=DQOCFCZRZOAIBN-WZHZPDAFSA-L,2.45,-1.9,NA,NA,NA,NA,NA,NA,NA,NA,NA,NA,NA,NA