Metabolite,HMDB Name,Shift (ppm),Hs,Type,J (Hz),Height,Physiological Charge,SMILES,InChlKey,pKa (Strongest Acidic),pKa (Strongest Basic),Blood,Urine,Feces,Saliva,Cerebrospinal Fluid (CSF),Amniotic Fluid,Aqueous Humour,Ascites Fluid,Breast Milk,Lymph,Sweat,Tears
Cytidine monophosphate,HMDB00095,4.055,1,dd,3.79 2.80,0.2482,-2,NC1=NC(=O)N(C=C1)[C@@H]1O[C@H](COP(O)(O)=O)[C@@H](O)[C@H]1O,InChIKey=IERHLVCPSMICTF-XVFCMESISA-N,11.62,-3.2,NaN,NaN,NaN,NaN,NaN,NaN,NaN,NaN,NaN,NaN,NaN,NaN
D-Xylulose,HMDB01644,4.055,1,d,5.61,0.1643,0,OC[C@@H](O)[C@H](O)C(=O)CO,InChIKey=ZAQJHHRNXZUBTE-WUJLRWPWSA-N,3.08,-1,NaN,NaN,NaN,NaN,NaN,NaN,NaN,NaN,NaN,NaN,NaN,NaN
N-Acetylmannosamine,HMDB01129,4.055,1,dd,9.85 4.68,0.094,0,[H][C@@]1(O)O[C@H](CO)[C@@H](O)[C@H](O)[C@@H]1NC(C)=O,InChIKey=OVRNDRQMDRJTHS-OZRXBMAMSA-N,2.86,2.89,NaN,NaN,NaN,NaN,NaN,NaN,NaN,NaN,NaN,NaN,NaN,NaN
o-Tyrosine,HMDB06050,4.055,1,dd,8.03 4.68,0.1765,0,NC(CC1=CC=CC=C1O)C(O)=O,InChIKey=WRFPVMFCRNYQNR-UHFFFAOYSA-N,1.08,-3.6,NaN,NaN,NaN,NaN,NaN,NaN,NaN,NaN,NaN,NaN,NaN,NaN
Raffinose,HMDB03213,4.055,3,m,NA,0.5973,0,OC[C@H]1O[C@@](CO)(OC2O[C@H](COC3O[C@H](CO)[C@H](O)[C@H](O)[C@H]3O)[C@@H](O)[C@H](O)[C@H]2O)[C@@H](O)[C@@H]1O,InChIKey=MUPFEKGTMRGPLJ-BQCSWRFHSA-N,14.58,-3,NaN,NaN,NaN,NaN,NaN,NaN,NaN,NaN,NaN,NaN,NaN,NaN
Sucrose,HMDB00258,4.055,1,t,8.59,0.2723,0,OC[C@H]1O[C@@](CO)(O[C@H]2O[C@H](CO)[C@@H](O)[C@H](O)[C@H]2O)[C@@H](O)[C@@H]1O,InChIKey=CZMRCDWAGMRECN-UGDNZRGBSA-N,8.75,9.83,NaN,5.86275,NaN,NaN,NaN,NaN,NaN,NaN,NaN,NaN,NaN,NaN
L-Tryptophan,HMDB00929,4.061,12,dd,8.104 4.851,NA,0,N[C@@H](CC1=CNC2=CC=CC=C12)C(O)=O,InChIKey=QIVBCDIJIAJPQS-VIFPVBQESA-N,1.86,4.79,58.96666667,4.8066,NaN,2.65,7.335,NaN,NaN,NaN,NaN,NaN,NaN,NaN
Deoxyuridine,HMDB00012,4.065,8,m,NA,0.1069,0,OC[C@H]1O[C@H](C[C@@H]1O)N1C=CC(=O)NC1=O,InChIKey=MXHRCPNRJAMMIM-SHYZEUOFSA-N,4,-9.7,0.284,1,NaN,NaN,0,NaN,NaN,NaN,NaN,NaN,NaN,NaN
Creatinine,HMDB00562,4.065,2,s,NA,0.4374,0,CN1CC(=O)NC1=N,InChIKey=DDRJAANPRJIHGJ-UHFFFAOYSA-N,3.53,-3.8,81.10666667,10608.91,NaN,NA,57.71666667,69.65,NaN,NaN,NaN,NaN,NaN,NaN
Canavanine,HMDB02706,4.065,2,m,10.52 6.56 5.34,0.3771,1,N[C@@H](CCONC(N)=N)C(O)=O,InChIKey=FSBIGDSBMBYOPN-VKHMYHEASA-N,1.73,-7.1,NA,NA,NA,NA,NA,NA,NA,NA,NA,NA,NA,NA
Hydroxycobalamin,HMDB02308,4.065,1,br. s.,NA,0.0052,2,[Co++].O.OC[C@H]1O[C@@]([H])([C@H](O)[C@]1([H])OP(=O)([O-])O[C@H](C)CNC(=O)CC[C@]1(C)[C@@H](CC(=O)N)[C@@]2([H])[N-]\C1=C(C)/C1=N/C(=C\C3=N\C(=C(C)/C4=N[C@]2(C)[C@@](C)(CC(=O)N)[C@@H]4CCC(=O)N)\[C@@](C)(CC(=O)N)[C@@H]3CCC(=O)N)/C(C)(C)[C@@H]1CCC(=O)N)N1C=NC2=C1C=C(C)C(C)=C2,InChIKey=DQOCFCZRZOAIBN-WZHZPDAFSA-L,2.45,-1.9,NA,NA,NA,NA,NA,NA,NA,NA,NA,NA,NA,NA
Dihydroandrosterone,HMDB00554,4.065,1,br. s.,NA,0.0839,0,[H][C@@]12CC[C@H](O)[C@@]1(C)CC[C@@]1([H])[C@@]2([H])CC[C@@]2([H])C[C@H](O)CC[C@]12C,InChIKey=CBMYJHIOYJEBSB-KHOSGYARSA-N,3.62,9.99,NaN,NaN,NaN,NaN,NaN,NaN,NaN,NaN,NaN,NaN,NaN,NaN
Hydroxyisocaproic acid,HMDB00746,4.065,8,dd,8.38 4.75,0.1288,-1,CC(C)C[C@H](O)C(O)=O,InChIKey=LVRFTAZAXQPQHI-YFKPBYRVSA-N,18.3,4.69,NaN,NaN,NaN,6.17,NaN,NaN,NaN,NaN,NaN,NaN,NaN,NaN
N-Acetylgalactosamine 4-sulphate,HMDB00781,4.065,1,dd,11.22 3.08,0.0755,-1,CC(=O)N[C@H]1[C@H](O)O[C@H](CO)[C@H](OS(O)(=O)=O)[C@@H]1O,InChIKey=WHCJUIFHMJFEFZ-UIAUGNHASA-N,4.09,9.31,NaN,NaN,NaN,NaN,NaN,NaN,NaN,NaN,NaN,NaN,NaN,NaN
Phenylpropionylglycine,HMDB00860,4.065,12,d,5.12,0.507,-1,OC(=O)CNC(=O)CCC1=CC=CC=C1,InChIKey=YEIQSAXUPKPPBN-UHFFFAOYSA-N,12.42,5.3,NaN,NaN,NaN,NaN,NaN,NaN,NaN,NaN,NaN,NaN,NaN,NaN
Myoinositol,HMDB00211,4.068,16,t,2.839,NA,0,O[C@H]1[C@H](O)[C@@H](O)[C@H](O)[C@H](O)[C@@H]1O,InChIKey=CDAISMWEOUEBRE-GPIVLXJGSA-N,11.92,7.06,NA,52.8,NaN,21.78,132.325,NaN,NaN,NaN,NaN,NaN,NaN,NaN
Choline,HMDB00097,4.071,14,ddd,NA,0.0607,1,C[N+](C)(C)CCO,InChIKey=OEYIOHPDSNJKLS-UHFFFAOYSA-N,2.53,2.66,12.55,NaN,NaN,NA,5.65,NaN,NaN,NaN,NaN,NaN,NaN,NaN
FAD,HMDB01248,4.075,2,m,NA,0.17,-3,CC1=CC2=C(C=C1C)N(C[C@H](O)[C@H](O)[C@H](O)COP(O)(=O)OP(O)(=O)OC[C@H]1O[C@H]([C@H](O)[C@@H]1O)N1C=NC3=C1N=CN=C3N)C1=NC(=O)NC(=O)C1=N2,InChIKey=VWWQXMAJTJZDQX-UYBVJOGSSA-N,10.59,-2.6,0.075,NaN,NaN,NaN,NaN,NaN,NaN,NaN,NaN,NaN,NaN,NaN
Deoxycholic acid,HMDB00626,4.075,1,t,NA,0.1249,-1,[H][C@@]12CC[C@H]([C@H](C)CCC(O)=O)[C@@]1(C)[C@@H](O)C[C@@]1([H])[C@@]2([H])CC[C@]2([H])C[C@H](O)CC[C@]12C,InChIKey=KXGVEGMKQFWNSR-LLQZFEROSA-N,4.73,-2,0.33,NaN,NaN,NaN,NaN,NaN,NaN,NaN,NaN,NaN,NaN,NaN
D-Ribose 5-phosphate,HMDB01548,4.075,20,m,NA,0.4299,-2,OC1O[C@H](COP(O)(O)=O)[C@@H](O)[C@H]1O,InChIKey=KTVPXOYAKDPRHY-SOOFDHNKSA-N,4.64,-6,13.2,NaN,NaN,NaN,NaN,NaN,NaN,NaN,NaN,NaN,NaN,NaN
2.3-Dihydroxyvaleric acid,HMDB00421,4.075,1,d,3.63,0.3223,-1,CCC(O)C(O)C(O)=O,InChIKey=CJXCLBPFKGZXJP-UHFFFAOYSA-N,3.28,-3,NA,NA,NA,NA,NA,NA,NA,NA,NA,NA,NA,NA
Azythromycin,HMDB01916,4.075,1,m,NA,0.0136,2,CC[C@@H]1OC(=O)[C@H](C)[C@@H](O[C@@H]2C[C@](C)(OC)[C@H](O)[C@@H](C)O2)[C@@H](C)[C@H](O[C@H]2O[C@@H](C)C[C@H]([C@@H]2O)N(C)C)[C@@](C)(O)C[C@H](C)CN(C)[C@@H](C)[C@@H](O)[C@]1(C)O,InChIKey=MQTOSJVFKKJCRP-HHZDEWPHSA-N,3.84,1.99,NA,NA,NA,NA,NA,NA,NA,NA,NA,NA,NA,NA
FADH,HMDB01197,4.075,2,m,NA,0.17,-2,CC1=CC2=C(C=C1C)N(C[C@H](O)[C@H](O)[C@H](O)COP(O)(=O)OP(O)(=O)OC[C@H]1O[C@H]([C@H](O)[C@@H]1O)N1C=NC3=C1N=CN=C3N)C1=C(N2)C(=O)NC(=O)N1,InChIKey=YPZRHBJKEMOYQH-UYBVJOGSSA-N,3.63,-3.4,NA,NA,NA,NA,NA,NA,NA,NA,NA,NA,NA,NA
Glucosamine 6-phosphate,HMDB01254,4.075,21,m,NA,0.4798,-1,N[C@H]1[C@@H](O)O[C@H](COP(O)(O)=O)[C@@H](O)[C@@H]1O,InChIKey=XHMJOUIAFHJHBW-UKFBFLRUSA-N,7.82,9.73,NA,NA,NA,NA,NA,NA,NA,NA,NA,NA,NA,NA
Glucaric acid,HMDB00663,4.075,1,dd,4.51 3.08,0.2498,-2,O[C@@H]([C@H](O)[C@@H](O)C(O)=O)[C@H](O)C(O)=O,InChIKey=DSLZVSRJTYRBFB-LLEIAEIESA-N,4.06,-2.1,NaN,NaN,NaN,NaN,NaN,NaN,NaN,NaN,NaN,NaN,NaN,NaN
Threonic acid,HMDB00943,4.075,1,d,2.42,1,-1,OC[C@@H](O)[C@H](O)C(O)=O,InChIKey=JPIJQSOTBSSVTP-GBXIJSLDSA-N,4.39,-2.9,NaN,10,NaN,NaN,NaN,NaN,NaN,NaN,NaN,NaN,NaN,NaN
Flavin Mononucleotide,HMDB01520,4.085,12,m,NA,0.0551,-3,CC1=CC2=C(C=C1C)N(C[C@H](O)[C@H](O)[C@H](O)COP(O)(O)=O)C1=NC(=O)NC(=O)C1=N2,InChIKey=FVTCRASFADXXNN-SCRDCRAPSA-N,0.83,-3.6,0.0075,NaN,NaN,NaN,NaN,NaN,NaN,NaN,NaN,NaN,NaN,NaN
D-Galactose,HMDB00143,4.085,1,t,5.98,0.1565,0,OC[C@H]1O[C@H](O)[C@H](O)[C@@H](O)[C@H]1O,InChIKey=WQZGKKKJIJFFOK-PHYPRBDBSA-N,1.87,10,88.3,4.4,NaN,83.46,166,NaN,NaN,NaN,NaN,NaN,NaN,NaN
5-Thymidylic acid,HMDB01227,4.085,2,m,NA,0.1749,-2,CC1=CN([C@H]2C[C@H](O)[C@@H](COP(O)(O)=O)O2)C(=O)NC1=O,InChIKey=GYOZYWVXFNDGLU-XLPZGREQSA-N,9.56,-2.9,NA,NA,NA,NA,NA,NA,NA,NA,NA,NA,NA,NA
Pteroyltriglutamic acid,HMDB01902,4.085,2,m,NA,0.0681,-4,NC1=NC(=O)C2=NC(CNC3=CC=C(C=C3)C(=O)NC(CCC(=O)NC(CCC(=O)NC(CCC(O)=O)C(O)=O)C(O)=O)C(O)=O)=CN=C2N1,InChIKey=WOLQREOUPKZMEX-UHFFFAOYSA-N,13.42,-0.26,NA,NA,NA,NA,NA,NA,NA,NA,NA,NA,NA,NA
Adenosine 3'.5'-diphosphate,HMDB00061,4.085,1,m,NA,0.1398,-4,NC1=NC=NC2=C1N=CN2[C@@H]1O[C@H](COP(O)(O)=O)[C@@H](OP(O)(O)=O)[C@H]1O,InChIKey=WHTCPDAXWFLDIH-KQYNXXCUSA-N,9.07,4.95,NaN,NaN,NaN,NaN,NaN,NaN,NaN,NaN,NaN,NaN,NaN,NaN
Galacturonic acid,HMDB02545,4.085,10,d,1.27,0.9535,-1,O[C@@H](C=O)[C@@H](O)[C@@H](O)[C@H](O)C(O)=O,InChIKey=IAJILQKETJEXLJ-RSJOWCBRSA-N,14.58,-3,NaN,NaN,NaN,NaN,NaN,NaN,NaN,NaN,NaN,NaN,NaN,NaN
Cortisone,HMDB02802,4.095,1,dd,19.34 5.36,0.0949,0,[H][C@@]12CC[C@](O)(C(=O)CO)[C@@]1(C)CC(=O)[C@@]1([H])[C@@]2([H])CCC2=CC(=O)CC[C@]12C,InChIKey=MFYSYFVPBJMHGN-ZPOLXVRWSA-N,17.79,2.77,0.0624,0.011,NaN,NaN,NaN,NaN,NaN,NaN,NaN,NaN,NaN,NaN
PC(16:0/16:0),HMDB00564,4.095,2,m,NA,0.014,0,CCCCCCCCCCCCCCCC(=O)OC[C@H](COP([O-])(=O)OCC[N+](C)(C)C)OC(=O)CCCCCCCCCCCCCCC,InChIKey=KILNVBDSWZSGLL-KXQOOQHDSA-N,4.6,-2.9,584.557,NaN,NaN,NaN,NaN,NaN,NaN,NaN,NaN,NaN,NaN,NaN
Amlodipine,HMDB05018,4.095,2,ddd,NA,0.1757,1,CCOC(=O)C1=C(COCCN)NC(C)=C(C1C1=CC=CC=C1Cl)C(=O)OC,InChIKey=HTIQEAQVCYTUBX-UHFFFAOYSA-N,1.87,10,NA,NA,NA,NA,NA,NA,NA,NA,NA,NA,NA,NA
Glucosamine 6-sulfate,HMDB00592,4.095,1,dt,10.10 3.37,0.1331,0,N[C@H]1[C@H](O)O[C@H](COS(O)(=O)=O)[C@@H](O)[C@@H]1O,InChIKey=MTDHILKWIRSIHB-QZABAPFNSA-N,3.2,4.54,NA,NA,NA,NA,NA,NA,NA,NA,NA,NA,NA,NA
Cysteineglutathione disulfide,HMDB00656,4.095,5,dd,8.42 3.89,0.2376,-1,N[C@@H](CCC(=O)N[C@@H](CSSCC(N)C(O)=O)C(=O)NCC(O)=O)C(O)=O,InChIKey=BNRXZEPOHPEEAS-PPSBICQBSA-N,5.04,-1.4,NaN,NaN,NaN,NaN,NaN,NaN,NaN,NaN,NaN,NaN,NaN,NaN
N-Methylhydantoin,HMDB03646,4.095,2,s,NA,0.48,0,CN1CC(=O)NC1=O,InChIKey=RHYBFKMFHLPQPH-UHFFFAOYSA-N,14.58,-3,NaN,NaN,NaN,NaN,NaN,NaN,NaN,NaN,NaN,NaN,NaN,NaN
Levoglucosan,HMDB00640,4.097,1,dd,7.75 0.83,0.854,0,[H][C@@]12OC[C@@H](O1)[C@@H](O)[C@H](O)[C@H]2O,InChIKey=TWNIBLMWSKIRAT-VFUOTHLCSA-N,4.15,-7,NaN,NaN,NaN,NaN,NaN,NaN,NaN,NaN,NaN,NaN,NaN,NaN
Deacetyldiltiazem,HMDB02873,4.1,1,ddd,14.32 9.39 5.15,0.0226,1,COC1=CC=C(C=C1)[C@@H]1SC2=CC=CC=C2N(CCN(C)C)C(=O)[C@@H]1O,InChIKey=NZHUXMZTSSZXSB-MOPGFXCFSA-N,2.52,-4,NA,NA,NA,NA,NA,NA,NA,NA,NA,NA,NA,NA
D-Glucuronic acid,HMDB00127,4.1,1,d,10.08,0.0663,-1,O[C@H]1O[C@@H]([C@@H](O)[C@H](O)[C@H]1O)C(O)=O,InChIKey=AEMOLEFTQBMNLQ-WAXACMCWSA-N,3.07,-3,NaN,36.07,NaN,NaN,NaN,NaN,NaN,NaN,NaN,NaN,NaN,NaN
5-Aminolevulinic acid,HMDB01149,4.101,2,s,NA,0.3471,0,NCC(=O)CCC(O)=O,InChIKey=ZGXJTSGNIOSYLO-UHFFFAOYSA-N,9.91,-4.1,NaN,1.71,NaN,NaN,NaN,NaN,NaN,NaN,NaN,NaN,NaN,NaN
Adenylsuccinic acid,HMDB00536,4.105,2,m,NA,0.0022,-4,O[C@@H]1[C@@H](COP(O)(O)=O)O[C@H]([C@@H]1O)N1C=NC2=C1N=CN=C2NC(CC(O)=O)C(O)=O,InChIKey=OFBHPPMPBOJXRT-DPXQIYNJSA-N,1.86,-3,NA,NA,NA,NA,NA,NA,NA,NA,NA,NA,NA,NA
Heparin,HMDB01394,4.105,2,br. s.,NA,0.0195,-6,CC(=O)N[C@@H]1[C@@H](O)[C@H](O)[C@@H](COS(O)(=O)=O)O[C@@H]1O[C@H]1[C@H](O)[C@@H](O)[C@H](O[C@@H]2[C@@H](O)O[C@H](O[C@H]3[C@H](O)[C@@H](OS(O)(=O)=O)C(O)O[C@H]3C(O)=O)[C@H](OS(O)(=O)=O)[C@H]2CS(O)(=O)=O)O[C@@H]1C(O)=O,InChIKey=ZFGMDIBRIDKWMY-PASTXAENSA-N,1.87,10,NA,NA,NA,NA,NA,NA,NA,NA,NA,NA,NA,NA
6-Phosphogluconic acid,HMDB01316,4.105,1,m,NA,0.0499,-3,O[C@H](COP(O)(O)=O)[C@@H](O)[C@H](O)[C@@H](O)C(O)=O,InChIKey=BIRSGZKFKXLSJQ-SQOUGZDYSA-N,1.78,10.62,NaN,NaN,NaN,NaN,NaN,NaN,NaN,NaN,NaN,NaN,NaN,NaN
Geraniol,HMDB05812,4.105,2,d,7.23,0.4766,0,CC(C)=CCC\C(C)=C/CO,InChIKey=GLZPCOQZEFWAFX-YFHOEESVSA-N,1.87,10,NaN,NaN,NaN,NaN,NaN,NaN,NaN,NaN,NaN,NaN,NaN,NaN
Glucaric acid,HMDB00663,4.105,1,d,4.62,0.4336,-2,O[C@@H]([C@H](O)[C@@H](O)C(O)=O)[C@H](O)C(O)=O,InChIKey=DSLZVSRJTYRBFB-LLEIAEIESA-N,4.06,-2.1,NaN,NaN,NaN,NaN,NaN,NaN,NaN,NaN,NaN,NaN,NaN,NaN
Phosphoserine,HMDB00272,4.11,1,t,6.48,0.1327,-2,N[C@@H](COP(O)(O)=O)C(O)=O,InChIKey=BZQFBWGGLXLEPQ-REOHCLBHSA-N,3.44,-0.35,NaN,4.201666667,NaN,NaN,4.6,NaN,NaN,NaN,NaN,NaN,NaN,NaN
L-Kynurenine,HMDB00684,4.115,0,dd,6.49 4.24,0.046,0,N[C@@H](CC(=O)C1=CC=CC=C1N)C(O)=O,InChIKey=YGPSJZOEDVAXAB-QMMMGPOBSA-N,13.62,0.28,1.5,1.63,NaN,NaN,0.0019,NaN,NaN,NaN,NaN,NaN,NaN,NaN
L-Cystine,HMDB00192,4.115,1,dd,8.21 3.91,0.0401,0,N[C@@H](CSSC[C@H](N)C(O)=O)C(O)=O,InChIKey=LEVWYRKDKASIDU-IMJSIDKUSA-N,11.31,-5.5,62.9,4.912,NaN,NaN,0.195,NaN,NaN,NaN,NaN,NaN,NaN,NaN
L-Lactic acid,HMDB00190,4.115,2,q,6.93 6.93,0.2701,-1,C[C@H](O)C(O)=O,InChIKey=JVTAAEKCZFNVCJ-REOHCLBHSA-N,14.58,-3,3621.8,28.21428571,NaN,342.99,1817.75,NaN,NaN,NaN,NaN,NaN,NaN,NaN
2-Methylbutyrylglycine,HMDB00339,4.115,14,d,5.08,0.6045,-1,CCC(C)C(=O)NCC(O)=O,InChIKey=HOACIBQKYRHBOW-UHFFFAOYSA-N,1.86,-0.58,NaN,2,NaN,NaN,NaN,NaN,NaN,NaN,NaN,NaN,NaN,NaN
3-Chlorotyrosine,HMDB01885,4.115,1,dd,7.57 5.42,0.2017,0,NC(CC1=CC(Cl)=C(O)C=C1)C(O)=O,InChIKey=ACWBBAGYTKWBCD-UHFFFAOYSA-N,18.22,-0.88,NaN,7.00E-04,NaN,NaN,NaN,NaN,NaN,NaN,NaN,NaN,NaN,NaN
5beta-Coprostanol,HMDB00577,4.115,1,m,NA,0.019,0,[H][C@@]1(CC[C@@]2([H])[C@]3([H])CC[C@]4([H])C[C@@H](O)CC[C@]4(C)[C@@]3([H])CC[C@]12C)[C@H](C)CCCC(C)C,InChIKey=QYIXCDOBOSTCEI-NWKZBHTNSA-N,4.42,-7.4,NaN,NaN,NaN,NaN,NaN,NaN,NaN,NaN,NaN,NaN,NaN,NaN
Berberine,HMDB03409,4.115,3,s,NA,0.743,1,COC1=C(OC)C2=C[N+]3=C(C=C2C=C1)C1=CC2=C(OCO2)C=C1CC3,InChIKey=YBHILYKTIRIUTE-UHFFFAOYSA-N,14.58,-3,NaN,NaN,NaN,NaN,NaN,NaN,NaN,NaN,NaN,NaN,NaN,NaN
Hexanoylglycine,HMDB00701,4.115,16,d,5.22,1,-1,CCCCCC(=O)NCC(O)=O,InChIKey=UPCKIPHSXMXJOX-UHFFFAOYSA-N,0.73,-0.95,NaN,1,NaN,NaN,NaN,NaN,NaN,NaN,NaN,NaN,NaN,NaN
Isobutyrylglycine,HMDB00730,4.115,17,d,5.12,0.3475,-1,CC(C)C(=O)NCC(O)=O,InChIKey=DCICDMMXFIELDF-UHFFFAOYSA-N,4.65,-1.3,NaN,NaN,NaN,NaN,NaN,NaN,NaN,NaN,NaN,NaN,NaN,NaN
N-Acetylglutamic acid,HMDB01138,4.115,1,m,NA,0.0258,-2,CC(=O)NC(CCC(O)=O)C(O)=O,InChIKey=RFMMMVDNIPUKGG-UHFFFAOYSA-N,1.19,-6.1,NaN,1,NaN,NaN,NaN,NaN,NaN,NaN,NaN,NaN,NaN,NaN
Oenanthic ether,HMDB00798,4.115,2,q,7.15,0.3376,0,CCCCCCC(=O)OCC,InChIKey=TVQGDYNRXLTQAP-UHFFFAOYSA-N,12.45,1.31,NaN,NaN,NaN,NaN,NaN,NaN,NaN,NaN,NaN,NaN,NaN,NaN
Sepiapterin,HMDB00238,4.115,2,m,NA,0.0981,0,C[C@H](O)C(=O)C1=NC2=C(NC1)NC(N)=NC2=O,InChIKey=VPVOXUSPXFPWBN-VKHMYHEASA-N,12.42,-3.6,NaN,NaN,NaN,NaN,5.00E-04,NaN,NaN,NaN,NaN,NaN,NaN,NaN
Ribothymidine,HMDB00884,4.123,1,m,NA,0.1081,0,CC1=CN([C@@H]2O[C@H](CO)[C@@H](O)[C@H]2O)C(=O)NC1=O,InChIKey=DWRXFEITVBNRMK-JXOAFFINSA-N,0.83,9.06,NaN,NaN,NaN,NaN,NaN,NaN,NaN,NaN,NaN,NaN,NaN,NaN
Pregnenolone sulfate,HMDB00774,4.125,1,m,NA,0.0075,-1,[H][C@@]12CC[C@H](C(C)=O)[C@@]1(C)CC[C@@]1([H])[C@@]2([H])CC=C2CC(CC[C@]12C)OS(O)(=O)=O,InChIKey=DIJBBUIOWGGQOP-OZIWPBGVSA-N,-0.99,5.01,0.13,NaN,NaN,NaN,NaN,NaN,NaN,NaN,NaN,NaN,NaN,NaN
Cytidine,HMDB00089,4.125,11,m,NA,0.3112,0,NC1=NC(=O)N(C=C1)[C@@H]1O[C@H](CO)[C@@H](O)[C@H]1O,InChIKey=UHDGCWIWMRVCDJ-XVFCMESISA-N,12.18,-5.4,0.175,0.393333333,NaN,0.132,NaN,NaN,NaN,NaN,NaN,NaN,NaN,NaN
Fructose 6-phosphate,HMDB00124,4.125,9,m,NA,0.1661,-2,OCC(=O)[C@@H](O)[C@H](O)[C@H](O)COP(O)(O)=O,InChIKey=GSXOAOHZAIYLCY-HSUXUTPPSA-N,3.78,-4,10.2,NaN,NaN,NaN,NaN,NaN,NaN,NaN,NaN,NaN,NaN,NaN
SM(d18:1/18:0),HMDB01348,4.125,1,m,NA,0.0037,0,CCCCCCCCCCCCCCCCCC(=O)N[C@@]([H])(COP(O)(=O)OCC[N+](C)(C)C)[C@]([H])(O)\C=C\CCCCCCCCCCCCC,InChIKey=LKQLRGMMMAHREN-YJFXYUILSA-O,1.86,-6.7,157.1,NaN,NaN,0.121,NaN,NaN,NaN,NaN,NaN,NaN,NaN,NaN
2-Phenylaminoadenosine,HMDB01069,4.125,1,q,NA,0.0126,0,NC1=C2N=CN(C3OC(CO)C(O)C3O)C2=NC(NC2=CC=CC=C2)=N1,InChIKey=SCNILGOVBBRMBK-UHFFFAOYSA-N,0.9,7.43,NA,NA,NA,NA,NA,NA,NA,NA,NA,NA,NA,NA
Hydroxycobalamin,HMDB02308,4.125,1,t,NA,0.0087,2,[Co++].O.OC[C@H]1O[C@@]([H])([C@H](O)[C@]1([H])OP(=O)([O-])O[C@H](C)CNC(=O)CC[C@]1(C)[C@@H](CC(=O)N)[C@@]2([H])[N-]\C1=C(C)/C1=N/C(=C\C3=N\C(=C(C)/C4=N[C@]2(C)[C@@](C)(CC(=O)N)[C@@H]4CCC(=O)N)\[C@@](C)(CC(=O)N)[C@@H]3CCC(=O)N)/C(C)(C)[C@@H]1CCC(=O)N)N1C=NC2=C1C=C(C)C(C)=C2,InChIKey=DQOCFCZRZOAIBN-WZHZPDAFSA-L,2.45,-1.9,NA,NA,NA,NA,NA,NA,NA,NA,NA,NA,NA,NA
5-Methylcytidine,HMDB00982,4.125,1,m,NA,0.0935,0,CC1=CN([C@@H]2O[C@H](CO)[C@@H](O)[C@H]2O)C(=O)N=C1N,InChIKey=ZAYHVCMSTBRABG-JXOAFFINSA-N,4.13,5.53,NaN,NaN,NaN,NaN,NaN,NaN,NaN,NaN,NaN,NaN,NaN,NaN
N-Acetyl-L-alanine,HMDB00766,4.125,1,t,7.17,0.0915,-1,C[C@H](NC(C)=O)C(O)=O,InChIKey=KTHDTJVBEPMMGL-VKHMYHEASA-N,11.66,4.79,NaN,NaN,NaN,NaN,NaN,NaN,NaN,NaN,NaN,NaN,NaN,NaN
Phosphoserine,HMDB00272,4.131,1,t,6.48,0.1856,-2,N[C@@H](COP(O)(O)=O)C(O)=O,InChIKey=BZQFBWGGLXLEPQ-REOHCLBHSA-N,3.44,-0.35,NaN,4.201666667,NaN,NaN,4.6,NaN,NaN,NaN,NaN,NaN,NaN,NaN
D-Fructose,HMDB00660,4.133,6,m,NA,NA,0,OC[C@H]1O[C@](O)(CO)[C@@H](O)[C@@H]1O,InChIKey=RFSUNEUAIZKAJO-ARQDHWQXSA-N,3.61,-7,31,NaN,NaN,NaN,200,NaN,NaN,NaN,NaN,NaN,NaN,NaN
Deoxyguanosine,HMDB00085,4.134,1,m,NA,0.3651,0,NC1=NC2=C(N=CN2[C@H]2C[C@H](O)[C@@H](CO)O2)C(=O)N1,InChIKey=YKBGVTZYEHREMT-KVQBGUIXSA-N,10.16,-0.04,NaN,1,NaN,NaN,NaN,NaN,NaN,NaN,NaN,NaN,NaN,NaN
L-Proline,HMDB00162,4.135,1,dd,8.63 6.42,0.8513,0,OC(=O)[C@@H]1CCCN1,InChIKey=ONIBWKKTOPOVIA-BYPYZUCNSA-N,4.75,9.43,181.2666667,NA,NaN,NA,NA,NaN,NaN,NaN,NaN,NaN,NaN,NaN
4.5-Dihydroorotic acid,HMDB00528,4.135,1,t,6.66,0.1284,-1,OC(=O)C1CC(=O)NC(=O)N1,InChIKey=UFIVEPVSAGBUSI-UHFFFAOYSA-N,1.86,-6.7,NA,NA,NA,NA,NA,NA,NA,NA,NA,NA,NA,NA
L-Dihydroorotic acid,HMDB03349,4.135,1,t,6.52,0.5127,-1,OC(=O)[C@@H]1CC(=O)NC(=O)N1,InChIKey=UFIVEPVSAGBUSI-REOHCLBHSA-N,14.58,-3,NA,NA,NA,NA,NA,NA,NA,NA,NA,NA,NA,NA
Methylhippuric acid,HMDB00859,4.135,2,s,NA,0.305,0,COC(=O)CNC(=O)C1=CC=CC=C1,InChIKey=XTKVNQKOTKPCKM-UHFFFAOYSA-N,1.22,-3.2,NA,NA,NA,NA,NA,NA,NA,NA,NA,NA,NA,NA
2-Hydroxyadipic acid,HMDB00321,4.135,14,m,NA,0.6899,-2,OC(CCCC(O)=O)C(O)=O,InChIKey=OTTXIFWBPRRYOG-UHFFFAOYSA-N,12.51,-0.35,NaN,NaN,NaN,NaN,NaN,NaN,NaN,NaN,NaN,NaN,NaN,NaN
Atenolol,HMDB01924,4.135,2,ddd,NA,0.1993,1,CC(C)NCC(O)COC1=CC=C(CC(N)=O)C=C1,InChIKey=METKIMKYRPQLGS-UHFFFAOYSA-N,15.74,-0.94,NaN,NaN,NaN,NaN,NaN,NaN,NaN,NaN,NaN,NaN,NaN,NaN
DL-O-Phosphoserine,HMDB01721,4.135,22,m,NA,0.4789,-2,NC(COP(O)(O)=O)C(O)=O,InChIKey=BZQFBWGGLXLEPQ-UHFFFAOYSA-N,7.07,-3,NaN,NaN,NaN,NaN,NaN,NaN,NaN,NaN,NaN,NaN,NaN,NaN
Epietiocholanolone,HMDB00546,4.135,1,br. s.,NA,0.1506,0,[H][C@@]12CCC(=O)[C@@]1(C)CC[C@@]1([H])[C@@]2([H])CC[C@]2([H])C[C@@H](O)CC[C@]12C,InChIKey=QGXBDMJGAMFCBF-XRJZGPCZSA-N,4.14,-2.8,NaN,NaN,NaN,NaN,NaN,NaN,NaN,NaN,NaN,NaN,NaN,NaN
Glucaric acid,HMDB00663,4.135,1,d,3.03,0.4579,-2,O[C@@H]([C@H](O)[C@@H](O)C(O)=O)[C@H](O)C(O)=O,InChIKey=DSLZVSRJTYRBFB-LLEIAEIESA-N,4.06,-2.1,NaN,NaN,NaN,NaN,NaN,NaN,NaN,NaN,NaN,NaN,NaN,NaN
Gluconolactone,HMDB00150,4.135,1,d,3.69,0.7746,0,OC[C@H]1OC(=O)[C@H](O)[C@@H](O)[C@@H]1O,InChIKey=PHOQVHQSTUBQQK-SQOUGZDYSA-N,4.22,-0.38,NaN,NaN,NaN,NaN,NaN,NaN,NaN,NaN,NaN,NaN,NaN,NaN
Hydroxykynurenine,HMDB00732,4.135,1,t,NA,0.0624,0,NC(CC(=O)C1=C(N)C(O)=CC=C1)C(O)=O,InChIKey=VCKPUUFAIGNJHC-UHFFFAOYSA-N,0.83,-3.3,NaN,NaN,NaN,NaN,NaN,NaN,NaN,NaN,NaN,NaN,NaN,NaN
N-Acetylgalactosamine,HMDB00212,4.135,1,m,NA,0.0518,0,CC(=O)N[C@H]1[C@@H](O)O[C@H](CO)[C@H](O)[C@@H]1O,InChIKey=OVRNDRQMDRJTHS-CBQIKETKSA-N,15.7,-3.3,NaN,NaN,NaN,NaN,NaN,NaN,NaN,NaN,NaN,NaN,NaN,NaN
Uridine,HMDB00296,4.136,1,m,NA,0.1542,0,OC[C@H]1O[C@H]([C@H](O)[C@@H]1O)N1C=CC(=O)NC1=O,InChIKey=DRTQHJPVMGBUCF-XVFCMESISA-N,3.77,-0.35,3.11,0.602,NaN,NaN,NaN,NaN,NaN,NaN,NaN,NaN,NaN,NaN
Gluconic acid,HMDB00625,4.138,1,d,3.4,0.2499,-1,OC[C@@H](O)[C@@H](O)[C@H](O)[C@@H](O)C(O)=O,InChIKey=RGHNJXZEOKUKBD-SQOUGZDYSA-N,14.58,-3,NA,NaN,NaN,45.49,NaN,NaN,NaN,NaN,NaN,NaN,NaN,NaN
Biotin,HMDB00030,4.145,1,m,NA,0.2128,-1,[H][C@]12CS[C@@H](CCCCC(O)=O)[C@@]1([H])NC(=O)N2,InChIKey=YBJHBAHKTGYVGT-ZKWXMUAHSA-N,4.36,-3,0.00127,0.036,NaN,0.071,NaN,NaN,NaN,NaN,NaN,NaN,NaN,NaN
Neopterin,HMDB00845,4.145,1,td,6.68 3.63,0.2372,0,NC1=NC2=C(N=C(C=N2)C(O)C(O)CO)C(=O)N1,InChIKey=BMQYVXCPAOLZOK-UHFFFAOYSA-N,0.83,-0.77,0.004933333,NaN,NaN,NaN,NaN,NaN,NaN,NaN,NaN,NaN,NaN,NaN
1-Methylinosine,HMDB02721,4.145,1,q,NA,0.1,0,CN1C=NC2=C(N=CN2[C@@H]2O[C@H](CO)[C@@H](O)[C@H]2O)C1=O,InChIKey=WJNGQIYEQLPJMN-IOSLPCCCSA-N,18.21,9.04,0.06345,1.13,NaN,NaN,NaN,NaN,NaN,NaN,NaN,NaN,NaN,NaN
Glyceric acid,HMDB00139,4.145,1,m,NA,0.5683,-1,OC[C@@H](O)C(O)=O,InChIKey=RBNPOMFGQQGHHO-UWTATZPHSA-N,4.35,4.92,NA,3.1,NaN,8.2,NaN,NaN,NaN,NaN,NaN,NaN,NaN,NaN
Stachyose,HMDB03553,4.145,1,dd,NA,0.1853,0,OC[C@H]1O[C@@](CO)(O[C@H]2O[C@H](CO[C@H]3O[C@H](CO[C@H]4O[C@H](CO)[C@H](O)[C@H](O)[C@H]4O)[C@H](O)[C@H](O)[C@H]3O)[C@@H](O)[C@H](O)[C@H]2O)[C@@H](O)[C@@H]1O,InChIKey=UQZIYBXSHAGNOE-XNSRJBNMSA-N,14.58,-3,NA,NA,NA,NA,NA,NA,NA,NA,NA,NA,NA,NA
TG(16:0/16:0/16:0)[iso],HMDB05356,4.145,2,dd,NA,0.0312,0,CCCCCCCCCCCCCCCC(=O)OCC(COC(=O)CCCCCCCCCCCCCCC)OC(=O)CCCCCCCCCCCCCCC,InChIKey=PVNIQBQSYATKKL-UHFFFAOYSA-N,1.87,10,NA,NA,NA,NA,NA,NA,NA,NA,NA,NA,NA,NA
3-Methylcrotonylglycine,HMDB00459,4.145,18,d,5.31,0.5068,-1,CC(C)=CC(=O)NCC(O)=O,InChIKey=PFWQSHXPNKRLIV-UHFFFAOYSA-N,3.52,-3.3,NaN,1,NaN,NaN,NaN,NaN,NaN,NaN,NaN,NaN,NaN,NaN
Loratadine,HMDB05000,4.145,2,q,NA,0.0523,0,CCOC(=O)N1CCC(CC1)=C1C2=C(CCC3=CC=CN=C13)C=C(Cl)C=C2,InChIKey=JCCNYMKQOSZNPW-UHFFFAOYSA-N,1.87,10,NaN,NaN,NaN,NaN,NaN,NaN,NaN,NaN,NaN,NaN,NaN,NaN
N-Acetylgalactosamine 4-sulphate,HMDB00781,4.145,1,dd,NA,0.0559,-1,CC(=O)N[C@H]1[C@H](O)O[C@H](CO)[C@H](OS(O)(=O)=O)[C@@H]1O,InChIKey=WHCJUIFHMJFEFZ-UIAUGNHASA-N,4.09,9.31,NaN,NaN,NaN,NaN,NaN,NaN,NaN,NaN,NaN,NaN,NaN,NaN
Quinic acid,HMDB03072,4.145,1,q,3.47,0.2876,-1,OC1C[C@@](O)(C[C@@H](O)[C@H]1O)C(O)=O,InChIKey=AAWZDTNXLSGCEK-RKGSPJAZSA-N,1.86,-0.032,NaN,NaN,NaN,NaN,NaN,NaN,NaN,NaN,NaN,NaN,NaN,NaN
Pseudouridine,HMDB00767,4.155,1,t,5.38,0.3994,0,OC[C@H]1O[C@H]([C@H](O)[C@@H]1O)C1=CNC(=O)NC1=O,InChIKey=PTJWIQPHWPFNBW-GBNDHIKLSA-N,1.08,-3.6,3.18,17.15566667,NaN,NaN,NaN,NaN,NaN,NaN,NaN,NaN,NaN,NaN
Deoxyadenosine monophosphate,HMDB00905,4.155,1,q,NA,0.2471,-2,NC1=NC=NC2=C1N=CN2[C@H]1C[C@H](O)[C@@H](COP(O)(O)=O)O1,InChIKey=KHWCHTKSEGGWEX-RRKCRQDMSA-N,0.54,10.77,NA,NA,NA,NA,NA,NA,NA,NA,NA,NA,NA,NA