Metabolite,HMDB Name,Shift (ppm),Hs,Type,J (Hz),Height,Physiological Charge,SMILES,InChlKey,pKa (Strongest Acidic),pKa (Strongest Basic),Blood,Urine,Feces,Saliva,Cerebrospinal Fluid (CSF),Amniotic Fluid,Aqueous Humour,Ascites Fluid,Breast Milk,Lymph,Sweat,Tears
1-Methylguanosine,HMDB01563,NA,1,q,3.96,0.1128,0,CN1C(N)=NC2=C(N=CN2[C@@H]2O[C@H](CO)[C@@H](O)[C@H]2O)C1=O,InChIKey=UTAIYTHAJQNQDW-KQYNXXCUSA-N,3.39,-1.4,0.046,2.4,NaN,NaN,NaN,NaN,NaN,NaN,NaN,NaN,NaN,NaN
1-Methylguanosine,HMDB01563,NA,1,m,NA,0.1048,0,CN1C(N)=NC2=C(N=CN2[C@@H]2O[C@H](CO)[C@@H](O)[C@H]2O)C1=O,InChIKey=UTAIYTHAJQNQDW-KQYNXXCUSA-N,3.39,-1.4,0.046,2.4,NaN,NaN,NaN,NaN,NaN,NaN,NaN,NaN,NaN,NaN
1-Methylguanosine,HMDB01563,NA,1,m,NA,0.0958,0,CN1C(N)=NC2=C(N=CN2[C@@H]2O[C@H](CO)[C@@H](O)[C@H]2O)C1=O,InChIKey=UTAIYTHAJQNQDW-KQYNXXCUSA-N,3.39,-1.4,0.046,2.4,NaN,NaN,NaN,NaN,NaN,NaN,NaN,NaN,NaN,NaN
3-Hydroxyanthranilic acid,HMDB01476,NA,1,d,7.92,0.2853,-1,NC1=C(O)C=CC=C1C(O)=O,InChIKey=WJXSWCUQABXPFS-UHFFFAOYSA-N,0.83,-6,0.079,3.28,NaN,NaN,NaN,NaN,NaN,NaN,NaN,NaN,NaN,NaN
3-Hydroxyanthranilic acid,HMDB01476,NA,1,d,7.92,0.3141,-1,NC1=C(O)C=CC=C1C(O)=O,InChIKey=WJXSWCUQABXPFS-UHFFFAOYSA-N,0.83,-6,0.079,3.28,NaN,NaN,NaN,NaN,NaN,NaN,NaN,NaN,NaN,NaN
3-Hydroxyanthranilic acid,HMDB01476,NA,1,t,7.92,0.4501,-1,NC1=C(O)C=CC=C1C(O)=O,InChIKey=WJXSWCUQABXPFS-UHFFFAOYSA-N,0.83,-6,0.079,3.28,NaN,NaN,NaN,NaN,NaN,NaN,NaN,NaN,NaN,NaN
L-Alloisoleucine,HMDB00557,NA,1,d,3.51,0.4443,0,CC[C@@H](C)[C@H](N)C(O)=O,InChIKey=AGPKZVBTJJNPAG-UHNVWZDZSA-N,2.45,-1.5,1.9,NaN,NaN,NaN,NaN,NaN,NaN,NaN,NaN,NaN,NaN,NaN
L-Alloisoleucine,HMDB00557,NA,6,m,NA,1,0,CC[C@@H](C)[C@H](N)C(O)=O,InChIKey=AGPKZVBTJJNPAG-UHNVWZDZSA-N,2.45,-1.5,1.9,NaN,NaN,NaN,NaN,NaN,NaN,NaN,NaN,NaN,NaN,NaN
L-Alloisoleucine,HMDB00557,NA,1,m,NA,0.0932,0,CC[C@@H](C)[C@H](N)C(O)=O,InChIKey=AGPKZVBTJJNPAG-UHNVWZDZSA-N,2.45,-1.5,1.9,NaN,NaN,NaN,NaN,NaN,NaN,NaN,NaN,NaN,NaN,NaN
L-Alloisoleucine,HMDB00557,NA,2,m,NA,0.142,0,CC[C@@H](C)[C@H](N)C(O)=O,InChIKey=AGPKZVBTJJNPAG-UHNVWZDZSA-N,2.45,-1.5,1.9,NaN,NaN,NaN,NaN,NaN,NaN,NaN,NaN,NaN,NaN,NaN
Phenol,HMDB00228,NA,2,d,7.48,0.3936,0,OC1=CC=CC=C1,InChIKey=ISWSIDIOOBJBQZ-UHFFFAOYSA-N,12.97,-0.88,3.62,3.5325,NaN,NaN,NaN,NaN,NaN,NaN,NaN,NaN,NaN,NaN
Phenol,HMDB00228,NA,1,t,7.48,0.1232,0,OC1=CC=CC=C1,InChIKey=ISWSIDIOOBJBQZ-UHFFFAOYSA-N,12.97,-0.88,3.62,3.5325,NaN,NaN,NaN,NaN,NaN,NaN,NaN,NaN,NaN,NaN
Phenol,HMDB00228,NA,2,m,NA,0.3538,0,OC1=CC=CC=C1,InChIKey=ISWSIDIOOBJBQZ-UHFFFAOYSA-N,12.97,-0.88,3.62,3.5325,NaN,NaN,NaN,NaN,NaN,NaN,NaN,NaN,NaN,NaN
1.11-Undecanedicarboxylic acid,HMDB02327,NA,4,t,7.48,0.425,-2,OC(=O)CCCCCCCCCCCC(O)=O,InChIKey=DXNCZXXFRKPEPY-UHFFFAOYSA-N,13.62,-6.7,NA,NA,NA,NA,NA,NA,NA,NA,NA,NA,NA,NA
1.11-Undecanedicarboxylic acid,HMDB02327,NA,4,m,NA,0.1453,-2,OC(=O)CCCCCCCCCCCC(O)=O,InChIKey=DXNCZXXFRKPEPY-UHFFFAOYSA-N,13.62,-6.7,NA,NA,NA,NA,NA,NA,NA,NA,NA,NA,NA,NA
1.11-Undecanedicarboxylic acid,HMDB02327,NA,14,s,NA,1,-2,OC(=O)CCCCCCCCCCCC(O)=O,InChIKey=DXNCZXXFRKPEPY-UHFFFAOYSA-N,13.62,-6.7,NA,NA,NA,NA,NA,NA,NA,NA,NA,NA,NA,NA
2.4-Diamino-6-hydroxypyrimidine,HMDB02128,NA,1,s,NA,0.2194,0,NC1=CC(=O)N=C(N)N1,InChIKey=SWELIMKTDYHAOY-UHFFFAOYSA-N,14.86,-3.6,NA,NA,NA,NA,NA,NA,NA,NA,NA,NA,NA,NA
2'-Deoxyguanosine 5'-monophosphate,HMDB01044,NA,1,m,NA,0.1632,-2,NC1=NC2=C(N=CN2[C@H]2C[C@H](O)[C@@H](COP(O)(O)=O)O2)C(=O)N1,InChIKey=LTFMZDNNPPEQNG-KVQBGUIXSA-N,0.9,-0.56,NA,NA,NA,NA,NA,NA,NA,NA,NA,NA,NA,NA
2'-Deoxyguanosine 5'-monophosphate,HMDB01044,NA,1,m,NA,0.186,-2,NC1=NC2=C(N=CN2[C@H]2C[C@H](O)[C@@H](COP(O)(O)=O)O2)C(=O)N1,InChIKey=LTFMZDNNPPEQNG-KVQBGUIXSA-N,0.9,-0.56,NA,NA,NA,NA,NA,NA,NA,NA,NA,NA,NA,NA
2'-Deoxyguanosine 5'-monophosphate,HMDB01044,NA,2,dd,7.04,0.2589,-2,NC1=NC2=C(N=CN2[C@H]2C[C@H](O)[C@@H](COP(O)(O)=O)O2)C(=O)N1,InChIKey=LTFMZDNNPPEQNG-KVQBGUIXSA-N,0.9,-0.56,NA,NA,NA,NA,NA,NA,NA,NA,NA,NA,NA,NA
2'-Deoxyguanosine 5'-monophosphate,HMDB01044,NA,3,dd,4.84,0.4266,-2,NC1=NC2=C(N=CN2[C@H]2C[C@H](O)[C@@H](COP(O)(O)=O)O2)C(=O)N1,InChIKey=LTFMZDNNPPEQNG-KVQBGUIXSA-N,0.9,-0.56,NA,NA,NA,NA,NA,NA,NA,NA,NA,NA,NA,NA
2'-Deoxyguanosine 5'-monophosphate,HMDB01044,NA,1,ddd,13.64 6.16 1.32,0.1529,-2,NC1=NC2=C(N=CN2[C@H]2C[C@H](O)[C@@H](COP(O)(O)=O)O2)C(=O)N1,InChIKey=LTFMZDNNPPEQNG-KVQBGUIXSA-N,0.9,-0.56,NA,NA,NA,NA,NA,NA,NA,NA,NA,NA,NA,NA
2'-Deoxyguanosine 5'-monophosphate,HMDB01044,NA,1,ddd,13.64 6.16 3.52,0.1019,-2,NC1=NC2=C(N=CN2[C@H]2C[C@H](O)[C@@H](COP(O)(O)=O)O2)C(=O)N1,InChIKey=LTFMZDNNPPEQNG-KVQBGUIXSA-N,0.9,-0.56,NA,NA,NA,NA,NA,NA,NA,NA,NA,NA,NA,NA
2'-Deoxyguanosine 5'-monophosphate,HMDB01044,NA,1,s,NA,1,-2,NC1=NC2=C(N=CN2[C@H]2C[C@H](O)[C@@H](COP(O)(O)=O)O2)C(=O)N1,InChIKey=LTFMZDNNPPEQNG-KVQBGUIXSA-N,0.9,-0.56,NA,NA,NA,NA,NA,NA,NA,NA,NA,NA,NA,NA
3-Oxoadipic acid,HMDB00398,NA,2,t,7.74,0.9589,-2,OC(=O)CCC(=O)CC(O)=O,InChIKey=RTGHRDFWYQHVFW-UHFFFAOYSA-N,4.48,-4.9,NA,NA,NA,NA,NA,NA,NA,NA,NA,NA,NA,NA
3-Oxoadipic acid,HMDB00398,NA,2,d,8.12,0.8764,-2,OC(=O)CCC(=O)CC(O)=O,InChIKey=RTGHRDFWYQHVFW-UHFFFAOYSA-N,4.48,-4.9,NA,NA,NA,NA,NA,NA,NA,NA,NA,NA,NA,NA
3-Oxoadipic acid,HMDB00398,NA,2,t,7.75,1,-2,OC(=O)CCC(=O)CC(O)=O,InChIKey=RTGHRDFWYQHVFW-UHFFFAOYSA-N,4.48,-4.9,NA,NA,NA,NA,NA,NA,NA,NA,NA,NA,NA,NA
3-Oxoadipic acid,HMDB00398,NA,2,d,8.08,0.895,-2,OC(=O)CCC(=O)CC(O)=O,InChIKey=RTGHRDFWYQHVFW-UHFFFAOYSA-N,4.48,-4.9,NA,NA,NA,NA,NA,NA,NA,NA,NA,NA,NA,NA
7-Methylguanosine,HMDB01107,NA,3,s,NA,1,1,CN1C=[N+]([C@@H]2O[C@H](CO)[C@@H](O)[C@H]2O)C2=C1C(=O)N=C(N)N2,InChIKey=OGHAROSJZRTIOK-KQYNXXCUSA-O,7.82,-6.9,NA,NA,NA,NA,NA,NA,NA,NA,NA,NA,NA,NA
7-Methylguanosine,HMDB01107,NA,0,s,NA,0.2559,1,CN1C=[N+]([C@@H]2O[C@H](CO)[C@@H](O)[C@H]2O)C2=C1C(=O)N=C(N)N2,InChIKey=OGHAROSJZRTIOK-KQYNXXCUSA-O,7.82,-6.9,NA,NA,NA,NA,NA,NA,NA,NA,NA,NA,NA,NA
7-Methylguanosine,HMDB01107,NA,0,m,NA,0.1005,1,CN1C=[N+]([C@@H]2O[C@H](CO)[C@@H](O)[C@H]2O)C2=C1C(=O)N=C(N)N2,InChIKey=OGHAROSJZRTIOK-KQYNXXCUSA-O,7.82,-6.9,NA,NA,NA,NA,NA,NA,NA,NA,NA,NA,NA,NA
7-Methylguanosine,HMDB01107,NA,0,t,5.27,0.1819,1,CN1C=[N+]([C@@H]2O[C@H](CO)[C@@H](O)[C@H]2O)C2=C1C(=O)N=C(N)N2,InChIKey=OGHAROSJZRTIOK-KQYNXXCUSA-O,7.82,-6.9,NA,NA,NA,NA,NA,NA,NA,NA,NA,NA,NA,NA
7-Methylguanosine,HMDB01107,NA,0,t,4.47,0.1415,1,CN1C=[N+]([C@@H]2O[C@H](CO)[C@@H](O)[C@H]2O)C2=C1C(=O)N=C(N)N2,InChIKey=OGHAROSJZRTIOK-KQYNXXCUSA-O,7.82,-6.9,NA,NA,NA,NA,NA,NA,NA,NA,NA,NA,NA,NA
7-Methylguanosine,HMDB01107,NA,0,m,NA,0.1031,1,CN1C=[N+]([C@@H]2O[C@H](CO)[C@@H](O)[C@H]2O)C2=C1C(=O)N=C(N)N2,InChIKey=OGHAROSJZRTIOK-KQYNXXCUSA-O,7.82,-6.9,NA,NA,NA,NA,NA,NA,NA,NA,NA,NA,NA,NA
7-Methylguanosine,HMDB01107,NA,1,m,NA,0.1137,1,CN1C=[N+]([C@@H]2O[C@H](CO)[C@@H](O)[C@H]2O)C2=C1C(=O)N=C(N)N2,InChIKey=OGHAROSJZRTIOK-KQYNXXCUSA-O,7.82,-6.9,NA,NA,NA,NA,NA,NA,NA,NA,NA,NA,NA,NA
7-Methylguanosine,HMDB01107,NA,0,d,3.92,0.2124,1,CN1C=[N+]([C@@H]2O[C@H](CO)[C@@H](O)[C@H]2O)C2=C1C(=O)N=C(N)N2,InChIKey=OGHAROSJZRTIOK-KQYNXXCUSA-O,7.82,-6.9,NA,NA,NA,NA,NA,NA,NA,NA,NA,NA,NA,NA
D-Pantethine,HMDB03828,NA,6,s,NA,1,0,CC(C)(CO)[C@@H](O)C(=O)NCCC(=O)NCCSSCCNC(=O)CCNC(=O)[C@H](O)C(C)(C)CO,InChIKey=DJWYOLJPSHDSAL-ROUUACIJSA-N,14.58,-3,NA,NA,NA,NA,NA,NA,NA,NA,NA,NA,NA,NA
D-Pantethine,HMDB03828,NA,6,s,NA,0.9338,0,CC(C)(CO)[C@@H](O)C(=O)NCCC(=O)NCCSSCCNC(=O)CCNC(=O)[C@H](O)C(C)(C)CO,InChIKey=DJWYOLJPSHDSAL-ROUUACIJSA-N,14.58,-3,NA,NA,NA,NA,NA,NA,NA,NA,NA,NA,NA,NA
D-Pantethine,HMDB03828,NA,2,d,11.21,0.2089,0,CC(C)(CO)[C@@H](O)C(=O)NCCC(=O)NCCSSCCNC(=O)CCNC(=O)[C@H](O)C(C)(C)CO,InChIKey=DJWYOLJPSHDSAL-ROUUACIJSA-N,14.58,-3,NA,NA,NA,NA,NA,NA,NA,NA,NA,NA,NA,NA
D-Pantethine,HMDB03828,NA,2,s,NA,0.4851,0,CC(C)(CO)[C@@H](O)C(=O)NCCC(=O)NCCSSCCNC(=O)CCNC(=O)[C@H](O)C(C)(C)CO,InChIKey=DJWYOLJPSHDSAL-ROUUACIJSA-N,14.58,-3,NA,NA,NA,NA,NA,NA,NA,NA,NA,NA,NA,NA
D-Pantethine,HMDB03828,NA,2,t,6.38,0.3184,0,CC(C)(CO)[C@@H](O)C(=O)NCCC(=O)NCCSSCCNC(=O)CCNC(=O)[C@H](O)C(C)(C)CO,InChIKey=DJWYOLJPSHDSAL-ROUUACIJSA-N,14.58,-3,NA,NA,NA,NA,NA,NA,NA,NA,NA,NA,NA,NA
D-Pantethine,HMDB03828,NA,2,t,6.46,0.2879,0,CC(C)(CO)[C@@H](O)C(=O)NCCC(=O)NCCSSCCNC(=O)CCNC(=O)[C@H](O)C(C)(C)CO,InChIKey=DJWYOLJPSHDSAL-ROUUACIJSA-N,14.58,-3,NA,NA,NA,NA,NA,NA,NA,NA,NA,NA,NA,NA
D-Pantethine,HMDB03828,NA,6,m,NA,0.4232,0,CC(C)(CO)[C@@H](O)C(=O)NCCC(=O)NCCSSCCNC(=O)CCNC(=O)[C@H](O)C(C)(C)CO,InChIKey=DJWYOLJPSHDSAL-ROUUACIJSA-N,14.58,-3,NA,NA,NA,NA,NA,NA,NA,NA,NA,NA,NA,NA
dUMP,HMDB01409,NA,1,td,4.84 3.08,0.3654,-2,O[C@H]1C[C@@H](O[C@@H]1COP(O)(O)=O)N1C=CC(=O)NC1=O,InChIKey=JSRLJPSBLDHEIO-SHYZEUOFSA-N,10.24,4.95,NA,NA,NA,NA,NA,NA,NA,NA,NA,NA,NA,NA
dUMP,HMDB01409,NA,1,d,8.36,1,-2,O[C@H]1C[C@@H](O[C@@H]1COP(O)(O)=O)N1C=CC(=O)NC1=O,InChIKey=JSRLJPSBLDHEIO-SHYZEUOFSA-N,10.24,4.95,NA,NA,NA,NA,NA,NA,NA,NA,NA,NA,NA,NA
dUMP,HMDB01409,NA,1,d,8.36,0.9136,-2,O[C@H]1C[C@@H](O[C@@H]1COP(O)(O)=O)N1C=CC(=O)NC1=O,InChIKey=JSRLJPSBLDHEIO-SHYZEUOFSA-N,10.24,4.95,NA,NA,NA,NA,NA,NA,NA,NA,NA,NA,NA,NA
dUMP,HMDB01409,NA,1,t,6.82,0.6515,-2,O[C@H]1C[C@@H](O[C@@H]1COP(O)(O)=O)N1C=CC(=O)NC1=O,InChIKey=JSRLJPSBLDHEIO-SHYZEUOFSA-N,10.24,4.95,NA,NA,NA,NA,NA,NA,NA,NA,NA,NA,NA,NA
dUMP,HMDB01409,NA,1,m,3.52 3.30 1.32,0.3063,-2,O[C@H]1C[C@@H](O[C@@H]1COP(O)(O)=O)N1C=CC(=O)NC1=O,InChIKey=JSRLJPSBLDHEIO-SHYZEUOFSA-N,10.24,4.95,NA,NA,NA,NA,NA,NA,NA,NA,NA,NA,NA,NA
dUMP,HMDB01409,NA,2,quin,7.48,0.3432,-2,O[C@H]1C[C@@H](O[C@@H]1COP(O)(O)=O)N1C=CC(=O)NC1=O,InChIKey=JSRLJPSBLDHEIO-SHYZEUOFSA-N,10.24,4.95,NA,NA,NA,NA,NA,NA,NA,NA,NA,NA,NA,NA
dUMP,HMDB01409,NA,1,dd,6.60 4.84,0.5617,-2,O[C@H]1C[C@@H](O[C@@H]1COP(O)(O)=O)N1C=CC(=O)NC1=O,InChIKey=JSRLJPSBLDHEIO-SHYZEUOFSA-N,10.24,4.95,NA,NA,NA,NA,NA,NA,NA,NA,NA,NA,NA,NA
Mannose 6-phosphate,HMDB01078,NA,0,s,NA,0.2278,-2,O[C@@H]1O[C@H](COP(O)(O)=O)[C@@H](O)[C@H](O)[C@@H]1O,InChIKey=NBSCHQHZLSJFNQ-RWOPYEJCSA-N,13.11,-1.2,NA,NA,NA,NA,NA,NA,NA,NA,NA,NA,NA,NA
Mannose 6-phosphate,HMDB01078,NA,4,m,NA,0.676,-2,O[C@@H]1O[C@H](COP(O)(O)=O)[C@@H](O)[C@H](O)[C@@H]1O,InChIKey=NBSCHQHZLSJFNQ-RWOPYEJCSA-N,13.11,-1.2,NA,NA,NA,NA,NA,NA,NA,NA,NA,NA,NA,NA
Mannose 6-phosphate,HMDB01078,NA,1,q,7.07,0.4346,-2,O[C@@H]1O[C@H](COP(O)(O)=O)[C@@H](O)[C@H](O)[C@@H]1O,InChIKey=NBSCHQHZLSJFNQ-RWOPYEJCSA-N,13.11,-1.2,NA,NA,NA,NA,NA,NA,NA,NA,NA,NA,NA,NA
Mannose 6-phosphate,HMDB01078,NA,1,d,9.19,0.1472,-2,O[C@@H]1O[C@H](COP(O)(O)=O)[C@@H](O)[C@H](O)[C@@H]1O,InChIKey=NBSCHQHZLSJFNQ-RWOPYEJCSA-N,13.11,-1.2,NA,NA,NA,NA,NA,NA,NA,NA,NA,NA,NA,NA
Mannose 6-phosphate,HMDB01078,NA,1,s,NA,0.981,-2,O[C@@H]1O[C@H](COP(O)(O)=O)[C@@H](O)[C@H](O)[C@@H]1O,InChIKey=NBSCHQHZLSJFNQ-RWOPYEJCSA-N,13.11,-1.2,NA,NA,NA,NA,NA,NA,NA,NA,NA,NA,NA,NA
Mannose 6-phosphate,HMDB01078,NA,4,m,NA,0.7849,-2,O[C@@H]1O[C@H](COP(O)(O)=O)[C@@H](O)[C@H](O)[C@@H]1O,InChIKey=NBSCHQHZLSJFNQ-RWOPYEJCSA-N,13.11,-1.2,NA,NA,NA,NA,NA,NA,NA,NA,NA,NA,NA,NA
Mannose 6-phosphate,HMDB01078,NA,2,m,NA,0.5178,-2,O[C@@H]1O[C@H](COP(O)(O)=O)[C@@H](O)[C@H](O)[C@@H]1O,InChIKey=NBSCHQHZLSJFNQ-RWOPYEJCSA-N,13.11,-1.2,NA,NA,NA,NA,NA,NA,NA,NA,NA,NA,NA,NA
Mannose 6-phosphate,HMDB01078,NA,1,m,NA,0.3365,-2,O[C@@H]1O[C@H](COP(O)(O)=O)[C@@H](O)[C@H](O)[C@@H]1O,InChIKey=NBSCHQHZLSJFNQ-RWOPYEJCSA-N,13.11,-1.2,NA,NA,NA,NA,NA,NA,NA,NA,NA,NA,NA,NA
Mannose 6-phosphate,HMDB01078,NA,5,m,NA,0.3395,-2,O[C@@H]1O[C@H](COP(O)(O)=O)[C@@H](O)[C@H](O)[C@@H]1O,InChIKey=NBSCHQHZLSJFNQ-RWOPYEJCSA-N,13.11,-1.2,NA,NA,NA,NA,NA,NA,NA,NA,NA,NA,NA,NA
Monoethyl malonic acid,HMDB00576,NA,2,s,NA,1,-1,CCOC(=O)CC(O)=O,InChIKey=HGINADPHJQTSKN-UHFFFAOYSA-N,4.44,-0.38,NA,NA,NA,NA,NA,NA,NA,NA,NA,NA,NA,NA
Monoethyl malonic acid,HMDB00576,NA,3,t,7.14,0.7145,-1,CCOC(=O)CC(O)=O,InChIKey=HGINADPHJQTSKN-UHFFFAOYSA-N,4.44,-0.38,NA,NA,NA,NA,NA,NA,NA,NA,NA,NA,NA,NA
Monoethyl malonic acid,HMDB00576,NA,2,q,7.25,0.4373,-1,CCOC(=O)CC(O)=O,InChIKey=HGINADPHJQTSKN-UHFFFAOYSA-N,4.44,-0.38,NA,NA,NA,NA,NA,NA,NA,NA,NA,NA,NA,NA
N-Methyl-D-aspartic acid,HMDB02393,NA,3,s,NA,1,-1,CN[C@H](CC(O)=O)C(O)=O,InChIKey=HOKKHZGPKSLGJE-GSVOUGTGSA-N,7.27,-6.6,NA,NA,NA,NA,NA,NA,NA,NA,NA,NA,NA,NA
N-Methyl-D-aspartic acid,HMDB02393,NA,1,dd,17.61 7.48,0.0933,-1,CN[C@H](CC(O)=O)C(O)=O,InChIKey=HOKKHZGPKSLGJE-GSVOUGTGSA-N,7.27,-6.6,NA,NA,NA,NA,NA,NA,NA,NA,NA,NA,NA,NA
N-Methyl-D-aspartic acid,HMDB02393,NA,1,dd,17.61 3.96,0.0955,-1,CN[C@H](CC(O)=O)C(O)=O,InChIKey=HOKKHZGPKSLGJE-GSVOUGTGSA-N,7.27,-6.6,NA,NA,NA,NA,NA,NA,NA,NA,NA,NA,NA,NA
N-Methyl-D-aspartic acid,HMDB02393,NA,1,dd,7.48 4.40,0.0775,-1,CN[C@H](CC(O)=O)C(O)=O,InChIKey=HOKKHZGPKSLGJE-GSVOUGTGSA-N,7.27,-6.6,NA,NA,NA,NA,NA,NA,NA,NA,NA,NA,NA,NA