Metabolite,HMDB Name,Shift (ppm),Hs,Type,J (Hz),Height,Physiological Charge,SMILES,InChlKey,pKa (Strongest Acidic),pKa (Strongest Basic),Blood,Urine,Feces,Saliva,Cerebrospinal Fluid (CSF),Amniotic Fluid,Aqueous Humour,Ascites Fluid,Breast Milk,Lymph,Sweat,Tears
Maltotetraose,HMDB01296,3.635,2,m,NA,0.9642,0,OC[C@H]1O[C@H](O[C@H]2[C@H](O)[C@@H](O)[C@@H](O[C@H]3[C@H](O)[C@@H](O)[C@@H](O[C@H]4[C@H](O)[C@@H](O)C(O)O[C@@H]4CO)O[C@@H]3CO)O[C@@H]2CO)[C@H](O)[C@@H](O)[C@@H]1O,InChIKey=LUEWUZLMQUOBSB-AYQJAVFRSA-N,3.23,5.58,NaN,NaN,NaN,NaN,NaN,NaN,NaN,NaN,NaN,NaN,NaN,NaN
N-Acetylmannosamine,HMDB01129,3.635,1,t,9.44,0.0878,0,[H][C@@]1(O)O[C@H](CO)[C@@H](O)[C@H](O)[C@@H]1NC(C)=O,InChIKey=OVRNDRQMDRJTHS-OZRXBMAMSA-N,2.86,2.89,NaN,NaN,NaN,NaN,NaN,NaN,NaN,NaN,NaN,NaN,NaN,NaN
Nutriacholic acid,HMDB00467,3.635,2,m,NA,0.0622,-1,[H][C@@]12CCC([C@@H](C)CCC(O)=O)[C@@]1(C)CC[C@@]1([H])[C@@]2([H])C(=O)C[C@]2([H])C[C@H](O)CC[C@]12C,InChIKey=DXOCDBGWDZAYRQ-QPVZPPSOSA-N,3.78,-0.78,NaN,NaN,NaN,NaN,NaN,NaN,NaN,NaN,NaN,NaN,NaN,NaN
Threonic acid,HMDB00943,3.635,1,dd,NA,0.6072,-1,OC[C@@H](O)[C@H](O)C(O)=O,InChIKey=JPIJQSOTBSSVTP-GBXIJSLDSA-N,4.39,-2.9,NaN,10,NaN,NaN,NaN,NaN,NaN,NaN,NaN,NaN,NaN,NaN
1-Methylinosine,HMDB02721,3.645,3,s,NA,0.8935,0,CN1C=NC2=C(N=CN2[C@@H]2O[C@H](CO)[C@@H](O)[C@H]2O)C1=O,InChIKey=WJNGQIYEQLPJMN-IOSLPCCCSA-N,18.21,9.04,0.06345,1.13,NaN,NaN,NaN,NaN,NaN,NaN,NaN,NaN,NaN,NaN
Sorbitol,HMDB00247,3.645,3,m,NA,0.6233,0,OC[C@H](O)[C@@H](O)[C@H](O)[C@H](O)CO,InChIKey=FBPFZTCFMRRESA-JGWLITMVSA-N,4.48,-0.54,7.045,3.5,NaN,NA,16.3,NaN,NaN,NaN,NaN,NaN,NaN,NaN
3a.6a.7b-Trihydroxy-5b-cholanoic acid,HMDB00364,3.645,1,br. s.,NA,0.0743,-1,[H][C@@]12CC[C@H]([C@H](C)CCC(O)=O)[C@@]1(C)CC[C@@]1([H])[C@@]2([H])[C@@H](O)[C@H](O)[C@]2([H])C[C@H](O)CC[C@]12C,InChIKey=DKPMWHFRUGMUKF-NTPBNISXSA-N,1.08,-3.4,NA,NA,NA,NA,NA,NA,NA,NA,NA,NA,NA,NA
3a.6b.7b-Trihydroxy-5b-cholanoic acid,HMDB00415,3.645,1,br. s.,NA,0.1142,-1,[H][C@@]12CC[C@H]([C@H](C)CCC(O)=O)[C@@]1(C)CC[C@@]1([H])[C@@]2([H])[C@@H](O)[C@@H](O)[C@]2([H])C[C@H](O)CC[C@]12C,InChIKey=DKPMWHFRUGMUKF-CRKPLTDNSA-N,3.85,-3,NA,NA,NA,NA,NA,NA,NA,NA,NA,NA,NA,NA
Allose,HMDB01151,3.645,1,dd,NA,0.3087,0,[H][C@@]1(CO)OC(O)[C@@]([H])(O)[C@@]([H])(O)[C@@]1([H])O,InChIKey=WQZGKKKJIJFFOK-HOWGCPQDSA-N,10.47,-4.8,NA,NA,NA,NA,NA,NA,NA,NA,NA,NA,NA,NA
Lisinopril,HMDB01938,3.645,1,m,NA,0.2724,0,NCCCC[C@H](N[C@@H](CCC1=CC=CC=C1)C(O)=O)C(=O)N1CCC[C@H]1C(O)=O,InChIKey=RLAWWYSOJDYHDC-BZSNNMDCSA-N,2.04,-3,NA,NA,NA,NA,NA,NA,NA,NA,NA,NA,NA,NA
D-Xylose,HMDB00098,3.645,2,m,NA,0.8027,0,O[C@@H]1COC(O)[C@H](O)[C@H]1O,InChIKey=SRBFZHDQGSBBOR-IOVATXLUSA-N,14.58,-3,NaN,5.26,NaN,NaN,NaN,NaN,NaN,NaN,NaN,NaN,NaN,NaN
Galactonic acid,HMDB00565,3.645,1,dd,9.68 1.49,0.2893,-1,OC[C@@H](O)[C@H](O)[C@H](O)[C@@H](O)C(O)=O,InChIKey=RGHNJXZEOKUKBD-MGCNEYSASA-N,3.77,-2.6,NaN,NaN,NaN,NaN,NaN,NaN,NaN,NaN,NaN,NaN,NaN,NaN
Glycerophosphocholine,HMDB00086,3.645,4,m,NA,0.0226,0,C[N+](C)(C)CCOP([O-])(=O)OC[C@@H](O)CO,InChIKey=SUHOQUVVVLNYQR-QMMMGPOBSA-N,3.55,-3,NaN,NaN,NaN,9.82,3.9,NaN,NaN,NaN,NaN,NaN,NaN,NaN
Isomaltose,HMDB02923,3.645,1,ddd,9.49 4.65 1.98,0.2391,0,OC[C@H]1O[C@H](OC[C@H]2OC(O)[C@H](O)[C@@H](O)[C@@H]2O)[C@H](O)[C@@H](O)[C@@H]1O,InChIKey=DLRVVLDZNNYCBX-RTPHMHGBSA-N,9.91,-1.4,NaN,NaN,NaN,NaN,NaN,NaN,NaN,NaN,NaN,NaN,NaN,NaN
Melibiose,HMDB00048,3.645,5,m,NA,0.1176,0,OC[C@H]1O[C@H](OC[C@H]2OC(O)[C@H](O)[C@@H](O)[C@@H]2O)[C@H](O)[C@@H](O)[C@H]1O,InChIKey=DLRVVLDZNNYCBX-ABXHMFFYSA-N,2.06,-0.1,NaN,NaN,NaN,NaN,NaN,NaN,NaN,NaN,NaN,NaN,NaN,NaN
Rutin,HMDB03249,3.645,1,dd,3.41 1.65,0.1594,-1,C[C@@H]1O[C@@H](OC[C@H]2O[C@@H](OC3=C(OC4=CC(O)=CC(O)=C4C3=O)C3=CC(O)=C(O)C=C3)[C@H](O)[C@@H](O)[C@@H]2O)[C@H](O)[C@H](O)[C@H]1O,InChIKey=IKGXIBQEEMLURG-NVPNHPEKSA-N,14.58,-3,NaN,NaN,NaN,NaN,NaN,NaN,NaN,NaN,NaN,NaN,NaN,NaN
Lithocholic acid,HMDB00761,3.655,2,m,NA,0.0429,-1,[H][C@@]12CC[C@H]([C@H](C)CCC(O)=O)[C@@]1(C)CC[C@@]1([H])[C@@]2([H])CCC2C[C@H](O)CC[C@]12C,InChIKey=SMEROWZSTRWXGI-YPLGJCPNSA-N,1.77,-1.8,0.33,NaN,NaN,NaN,NaN,NaN,NaN,NaN,NaN,NaN,NaN,NaN
Ribitol,HMDB00508,3.655,2,dd,NA,0.4726,0,OC[C@H](O)[C@H](O)[C@H](O)CO,InChIKey=HEBKCHPVOIAQTA-ZXFHETKHSA-N,9.83,9.52,0.46,3.5,NaN,NaN,10.765,NaN,NaN,NaN,NaN,NaN,NaN,NaN
D-Xylitol,HMDB02917,3.655,3,m,NA,1,0,OC[C@H](O)C(O)[C@H](O)CO,InChIKey=HEBKCHPVOIAQTA-NGQZWQHPSA-N,18.74,-3.3,0.677,3.5,NaN,NaN,NaN,NaN,NaN,NaN,NaN,NaN,NaN,NaN
D-Galactose,HMDB00143,3.655,1,dd,9.91 3.50,0.5521,0,OC[C@H]1O[C@H](O)[C@H](O)[C@@H](O)[C@H]1O,InChIKey=WQZGKKKJIJFFOK-PHYPRBDBSA-N,1.87,10,88.3,4.4,NaN,83.46,166,NaN,NaN,NaN,NaN,NaN,NaN,NaN
Azythromycin,HMDB01916,3.655,1,m,NA,0.0096,2,CC[C@@H]1OC(=O)[C@H](C)[C@@H](O[C@@H]2C[C@](C)(OC)[C@H](O)[C@@H](C)O2)[C@@H](C)[C@H](O[C@H]2O[C@@H](C)C[C@H]([C@@H]2O)N(C)C)[C@@](C)(O)C[C@H](C)CN(C)[C@@H](C)[C@@H](O)[C@]1(C)O,InChIKey=MQTOSJVFKKJCRP-HHZDEWPHSA-N,3.84,1.99,NA,NA,NA,NA,NA,NA,NA,NA,NA,NA,NA,NA
Heparin,HMDB01394,3.655,5,m,NA,0.0313,-6,CC(=O)N[C@@H]1[C@@H](O)[C@H](O)[C@@H](COS(O)(=O)=O)O[C@@H]1O[C@H]1[C@H](O)[C@@H](O)[C@H](O[C@@H]2[C@@H](O)O[C@H](O[C@H]3[C@H](O)[C@@H](OS(O)(=O)=O)C(O)O[C@H]3C(O)=O)[C@H](OS(O)(=O)=O)[C@H]2CS(O)(=O)=O)O[C@@H]1C(O)=O,InChIKey=ZFGMDIBRIDKWMY-PASTXAENSA-N,1.87,10,NA,NA,NA,NA,NA,NA,NA,NA,NA,NA,NA,NA
2-Methylbutyroylcarnitine,HMDB00378,3.655,1,d,14.39,0.0463,0,CCC(C)C(=O)OC(CC([O-])=O)C[N+](C)(C)C,InChIKey=IHCPDBBYTYJYIL-UHFFFAOYSA-N,1.86,-1.3,NaN,NaN,NaN,NaN,NaN,NaN,NaN,NaN,NaN,NaN,NaN,NaN
Dihydroandrosterone,HMDB00554,3.655,1,t,8.44,0.0782,0,[H][C@@]12CC[C@H](O)[C@@]1(C)CC[C@@]1([H])[C@@]2([H])CC[C@@]2([H])C[C@H](O)CC[C@]12C,InChIKey=CBMYJHIOYJEBSB-KHOSGYARSA-N,3.62,9.99,NaN,NaN,NaN,NaN,NaN,NaN,NaN,NaN,NaN,NaN,NaN,NaN
D-Xylulose,HMDB01644,3.655,1,dd,9.93 4.54,0.1251,0,OC[C@@H](O)[C@H](O)C(=O)CO,InChIKey=ZAQJHHRNXZUBTE-WUJLRWPWSA-N,3.08,-1,NaN,NaN,NaN,NaN,NaN,NaN,NaN,NaN,NaN,NaN,NaN,NaN
L-Fucose,HMDB00174,3.655,8,dd,9.92 3.49,0.1719,0,C[C@@H]1OC(O)[C@@H](O)[C@H](O)[C@@H]1O,InChIKey=SHZGCJCMOBCMKK-DHVFOXMCSA-N,14.12,9.39,NaN,9.6,NaN,112.06,NaN,NaN,NaN,NaN,NaN,NaN,NaN,NaN
Octadecanol,HMDB02350,3.655,2,t,6.38,0.0279,0,CCCCCCCCCCCCCCCCCCO,InChIKey=GLDOVTGHNKAZLK-UHFFFAOYSA-N,12.18,10,NaN,NaN,NaN,NaN,NaN,NaN,NaN,NaN,NaN,NaN,NaN,NaN
Trehalose,HMDB00975,3.655,14,dd,9.93 3.84,0.4642,0,OC[C@H]1O[C@H](O[C@H]2O[C@H](CO)[C@@H](O)[C@H](O)[C@H]2O)[C@H](O)[C@@H](O)[C@@H]1O,InChIKey=HDTRYLNUVZCQOY-LIZSDCNHSA-N,4.35,5,NaN,NaN,NaN,NaN,NaN,NaN,NaN,NaN,NaN,NaN,NaN,NaN
L-Iditol,HMDB11632,3.658,2,dd,NA,0.714,0,OC[C@H](O)[C@@H](O)[C@H](O)[C@@H](O)CO,InChIKey=FBPFZTCFMRRESA-UNTFVMJOSA-N,1.86,-3,NaN,NaN,NaN,NaN,NaN,NaN,NaN,NaN,NaN,NaN,NaN,NaN
Glycerol,HMDB00131,3.659,38,m,NA,NA,0,OCC(O)CO,InChIKey=PEDCQBHIVMGVHV-UHFFFAOYSA-N,12.76,-9.7,174.5333333,NaN,NaN,167.46,23.33333333,NaN,NaN,NaN,NaN,NaN,NaN,NaN
Mannitol,HMDB00765,3.664,22,dd,11.76 6.26,0.4501,0,OC[C@@H](O)[C@@H](O)[C@H](O)[C@H](O)CO,InChIKey=FBPFZTCFMRRESA-KVTDHHQDSA-N,14.75,-0.16,34,10.26,NaN,NaN,4.875,NaN,NaN,NaN,NaN,NaN,NaN,NaN
D-Mannose,HMDB00169,3.664,15,m,NA,NA,0,OC[C@H]1OC(O)[C@@H](O)[C@@H](O)[C@@H]1O,InChIKey=WQZGKKKJIJFFOK-QTVWNMPRSA-N,3.66,9.48,39,1.25,NaN,NaN,44,NaN,NaN,NaN,NaN,NaN,NaN,NaN
Deoxycholic acid,HMDB00626,3.665,1,m,NA,0.059,-1,[H][C@@]12CC[C@H]([C@H](C)CCC(O)=O)[C@@]1(C)[C@@H](O)C[C@@]1([H])[C@@]2([H])CC[C@]2([H])C[C@H](O)CC[C@]12C,InChIKey=KXGVEGMKQFWNSR-LLQZFEROSA-N,4.73,-2,0.33,NaN,NaN,NaN,NaN,NaN,NaN,NaN,NaN,NaN,NaN,NaN
Indoleacetic acid,HMDB00197,3.665,2,s,NA,1,-1,OC(=O)CC1=CNC2=C1C=CC=C2,InChIKey=SEOVTRFCIGRIMH-UHFFFAOYSA-N,7.61,-2.2,0.983333333,5.6,NaN,1.6455,0.029,NaN,NaN,NaN,NaN,NaN,NaN,NaN
7-Dehydrocholesterol,HMDB00032,3.665,1,tt,11.03 4.23,0.061,0,[H][C@@]12CC[C@H]([C@H](C)CCCC(C)C)[C@@]1(C)CC[C@@]1([H])C2=CC=C2C[C@@H](O)CC[C@]12C,InChIKey=UCTLRSWJYQTBFZ-DDPQNLDTSA-N,11.25,4.99,5,0.029,NaN,NaN,0,NaN,NaN,NaN,NaN,NaN,NaN,NaN
Fructose 6-phosphate,HMDB00124,3.665,5,m,NA,0.1767,-2,OCC(=O)[C@@H](O)[C@H](O)[C@H](O)COP(O)(O)=O,InChIKey=GSXOAOHZAIYLCY-HSUXUTPPSA-N,3.78,-4,10.2,NaN,NaN,NaN,NaN,NaN,NaN,NaN,NaN,NaN,NaN,NaN
Ethanol,HMDB00108,3.665,2,q,7.07,0.4722,0,CCO,InChIKey=LFQSCWFLJHTTHZ-UHFFFAOYSA-N,2.21,-3,27.5,NA,NaN,NA,NaN,NaN,NaN,NaN,NaN,NaN,NaN,NaN
17a-Estradiol,HMDB00429,3.665,1,t,8.67,0.1168,0,[H][C@@]12CC[C@@H](O)[C@@]1(C)CC[C@]1([H])C3=C(CC[C@@]21[H])C=C(O)C=C3,InChIKey=VOXZDWNPVJITMN-SFFUCWETSA-N,1.22,-6.1,NaN,2.3,NaN,NaN,NaN,NaN,NaN,NaN,NaN,NaN,NaN,NaN
Beta-N-Acetylglucosamine,HMDB00803,3.665,1,dd,NA,0.0454,0,CC(=O)N[C@H]1[C@H](O)O[C@H](CO)[C@@H](O)[C@@H]1O,InChIKey=OVRNDRQMDRJTHS-FMDGEEDCSA-N,1.16,8.69,NaN,NaN,NaN,NaN,NaN,NaN,NaN,NaN,NaN,NaN,NaN,NaN
Erythritol,HMDB02994,3.665,6,m,NA,0.9856,0,OC[C@H](O)[C@H](O)CO,InChIKey=UNXHWFMMPAWVPI-ZXZARUISSA-N,1.73,-4.7,NaN,60,NaN,NaN,37,NaN,NaN,NaN,NaN,NaN,NaN,NaN
L-Sorbose,HMDB01266,3.665,8,m,NA,0.9222,0,OC[C@@]1(O)OC[C@H](O)[C@@H](O)[C@@H]1O,InChIKey=LKDRXBCSQODPBY-BGPJRJDNSA-N,2.98,8.17,NaN,NaN,NaN,NaN,NaN,NaN,NaN,NaN,NaN,NaN,NaN,NaN
L-Arabitol,HMDB01851,3.675,6,m,NA,1,0,OC[C@H](O)C(O)[C@@H](O)CO,InChIKey=HEBKCHPVOIAQTA-IMJSIDKUSA-N,-2,-1.6,2,19.28,NaN,NaN,28.9,NaN,NaN,NaN,NaN,NaN,NaN,NaN
Citicoline,HMDB01413,3.675,2,m,NA,0.041,-1,C[N+](C)(C)CCOP([O-])(=O)OP(O)(=O)OC[C@H]1O[C@H]([C@H](O)[C@@H]1O)N1C=CC(N)=NC1=O,InChIKey=RZZPDXZPRHQOCG-OJAKKHQRSA-N,2.12,-3.8,NA,NA,NA,NA,NA,NA,NA,NA,NA,NA,NA,NA
Glucosamine 6-sulfate,HMDB00592,3.675,1,dd,10.48 9.00,0.12,0,N[C@H]1[C@H](O)O[C@H](COS(O)(=O)=O)[C@@H](O)[C@@H]1O,InChIKey=MTDHILKWIRSIHB-QZABAPFNSA-N,3.2,4.54,NA,NA,NA,NA,NA,NA,NA,NA,NA,NA,NA,NA
Sedoheptulose,HMDB03219,3.675,1,d,8.83,0.4971,0,OCC(O)C(O)C(O)C(O)C(=O)CO,InChIKey=HSNZZMHEPUFJNZ-UHFFFAOYSA-N,14.58,-3,NA,NA,NA,NA,NA,NA,NA,NA,NA,NA,NA,NA
Alpha-Lactose,HMDB00186,3.675,5,m,NA,0.9231,0,OC[C@H]1O[C@@H](O[C@H]2[C@H](O)[C@@H](O)[C@@H](O)O[C@@H]2CO)[C@H](O)[C@@H](O)[C@H]1O,InChIKey=GUBGYTABKSRVRQ-XLOQQCSPSA-N,1.87,10,NaN,1.45,NaN,NaN,NaN,NaN,NaN,NaN,NaN,NaN,NaN,NaN
D-Maltose,HMDB00163,3.675,2,m,NA,0.6662,0,OC[C@H]1O[C@H](O[C@H]2[C@H](O)[C@H](O)[C@@H](O)O[C@@H]2CO)[C@H](O)[C@@H](O)[C@@H]1O,InChIKey=GUBGYTABKSRVRQ-DKBJLJRDSA-N,7.93,9.34,NaN,NaN,NaN,NaN,NaN,NaN,NaN,NaN,NaN,NaN,NaN,NaN
Gluconolactone,HMDB00150,3.675,1,dd,11.8,0.2351,0,OC[C@H]1OC(=O)[C@H](O)[C@@H](O)[C@@H]1O,InChIKey=PHOQVHQSTUBQQK-SQOUGZDYSA-N,4.22,-0.38,NaN,NaN,NaN,NaN,NaN,NaN,NaN,NaN,NaN,NaN,NaN,NaN
Gluconolactone,HMDB00150,3.675,1,dd,6.51,0.2351,0,OC[C@H]1OC(=O)[C@H](O)[C@@H](O)[C@@H]1O,InChIKey=PHOQVHQSTUBQQK-SQOUGZDYSA-N,4.22,-0.38,NaN,NaN,NaN,NaN,NaN,NaN,NaN,NaN,NaN,NaN,NaN,NaN
L-Isoleucine,HMDB00172,3.676,1,d,3.969,NA,0,CC[C@H](C)[C@H](N)C(O)=O,InChIKey=AGPKZVBTJJNPAG-WHFBIAKZSA-N,1.7,9.29,61.35,1.787933333,NaN,NA,7.134,NaN,NaN,NaN,NaN,NaN,NaN,NaN
Gluconic acid,HMDB00625,3.677,1,m,NA,0.2581,-1,OC[C@@H](O)[C@@H](O)[C@H](O)[C@@H](O)C(O)=O,InChIKey=RGHNJXZEOKUKBD-SQOUGZDYSA-N,14.58,-3,NA,NaN,NaN,45.49,NaN,NaN,NaN,NaN,NaN,NaN,NaN,NaN
Testosterone,HMDB00234,3.678,1,m,NA,0.0609,0,[H][C@@]12CC[C@H](O)[C@@]1(C)CC[C@@]1([H])[C@@]2([H])CCC2=CC(=O)CC[C@]12C,InChIKey=MUMGGOZAMZWBJJ-DYKIIFRCSA-N,4.56,-2.8,NaN,1.07,NaN,NaN,NaN,NaN,NaN,NaN,NaN,NaN,NaN,NaN
Phenylacetylglycine,HMDB00821,3.68,2,s,NA,1,-1,OC(=O)CNC(=O)CC1=CC=CC=C1,InChIKey=UTYVDVLMYQPLQB-UHFFFAOYSA-N,1.79,-1.2,NaN,65,NaN,19.55,NaN,NaN,NaN,NaN,NaN,NaN,NaN,NaN
Sphingosine,HMDB00252,3.685,1,dd,10.84 4.46,0.0594,1,CCCCCCCCCCCCC\C=C\C(O)C(N)CO,InChIKey=WWUZIQQURGPMPG-CCEZHUSRSA-N,10.33,-2.7,0.05,3.85E-05,NaN,NaN,NaN,NaN,NaN,NaN,NaN,NaN,NaN,NaN
L-Kynurenine,HMDB00684,3.685,2,m,NA,0.0923,0,N[C@@H](CC(=O)C1=CC=CC=C1N)C(O)=O,InChIKey=YGPSJZOEDVAXAB-QMMMGPOBSA-N,13.62,0.28,1.5,1.63,NaN,NaN,0.0019,NaN,NaN,NaN,NaN,NaN,NaN,NaN
Glycerol 3-phosphate,HMDB00126,3.685,1,dd,11.80 4.63,0.9202,-2,OC[C@@H](O)COP(O)(O)=O,InChIKey=AWUCVROLDVIAJX-GSVOUGTGSA-N,1.87,-2.9,30,NaN,NaN,NaN,NaN,NaN,NaN,NaN,NaN,NaN,NaN,NaN
Guaifenesin,HMDB04998,3.685,2,m,NA,0.1031,0,COC1=CC=CC=C1OCC(O)CO,InChIKey=HSRJKNPTNIJEKV-UHFFFAOYSA-N,1.87,10,NA,NA,NA,NA,NA,NA,NA,NA,NA,NA,NA,NA
Maltitol,HMDB02928,3.685,3,m,NA,0.5657,0,[H][C@@](O[C@H]1O[C@H](CO)[C@@H](O)[C@H](O)[C@H]1O)([C@H](O)CO)[C@H](O)[C@@H](O)CO,InChIKey=VQHSOMBJVWLPSR-WUJBLJFYSA-N,1.22,-0.88,NA,NA,NA,NA,NA,NA,NA,NA,NA,NA,NA,NA
N-Acetyllactosamine,HMDB01542,3.685,1,m,NA,0.1323,0,CC(=O)N[C@H]1[C@H](O)O[C@H](CO)[C@@H](O[C@@H]2O[C@H](CO)[C@H](O)[C@H](O)[C@H]2O)[C@@H]1O,InChIKey=KFEUJDWYNGMDBV-LODBTCKLSA-N,4.82,-0.54,NA,NA,NA,NA,NA,NA,NA,NA,NA,NA,NA,NA
Cysteine-S-sulfate,HMDB00731,3.685,1,dd,15.41 3.74,1,-1,N[C@@H](CSS(O)(=O)=O)C(O)=O,InChIKey=NOKPBJYHPHHWAN-REOHCLBHSA-N,-1.1,-0.05,NaN,6.94,NaN,NaN,NaN,NaN,NaN,NaN,NaN,NaN,NaN,NaN
Galactonic acid,HMDB00565,3.685,2,m,NA,0.7891,-1,OC[C@@H](O)[C@H](O)[C@H](O)[C@@H](O)C(O)=O,InChIKey=RGHNJXZEOKUKBD-MGCNEYSASA-N,3.77,-2.6,NaN,NaN,NaN,NaN,NaN,NaN,NaN,NaN,NaN,NaN,NaN,NaN
Gulonic acid,HMDB03290,3.685,1,m,NA,0.2141,-1,OC[C@@H](O)[C@H](O)[C@@H](O)[C@@H](O)C(O)=O,InChIKey=RGHNJXZEOKUKBD-KKQCNMDGSA-N,14.58,-3,NaN,NaN,NaN,NaN,NaN,NaN,NaN,NaN,NaN,NaN,NaN,NaN
Raffinose,HMDB03213,3.685,2,d,1.38,1,0,OC[C@H]1O[C@@](CO)(OC2O[C@H](COC3O[C@H](CO)[C@H](O)[C@H](O)[C@H]3O)[C@@H](O)[C@H](O)[C@H]2O)[C@@H](O)[C@@H]1O,InChIKey=MUPFEKGTMRGPLJ-BQCSWRFHSA-N,14.58,-3,NaN,NaN,NaN,NaN,NaN,NaN,NaN,NaN,NaN,NaN,NaN,NaN
Sucrose,HMDB00258,3.685,2,s,NA,1,0,OC[C@H]1O[C@@](CO)(O[C@H]2O[C@H](CO)[C@@H](O)[C@H](O)[C@H]2O)[C@@H](O)[C@@H]1O,InChIKey=CZMRCDWAGMRECN-UGDNZRGBSA-N,8.75,9.83,NaN,5.86275,NaN,NaN,NaN,NaN,NaN,NaN,NaN,NaN,NaN,NaN
Anabasine,HMDB04350,3.695,1,dd,NA,0.043,1,C1CCC(NC1)C1=CN=CC=C1,InChIKey=MTXSIJUGVMTTMU-UHFFFAOYSA-N,1.86,-4.8,0.0031,4.4,NaN,NaN,NaN,NaN,NaN,NaN,NaN,NaN,NaN,NaN
Galactitol,HMDB00107,3.695,6,m,7.14,1,0,OC[C@H](O)[C@@H](O)[C@@H](O)[C@H](O)CO,InChIKey=FBPFZTCFMRRESA-GUCUJZIJSA-N,2.46,8.43,0.59,42,NaN,19.44,1.735,NaN,NaN,NaN,NaN,NaN,NaN,NaN
Galactitol,HMDB00107,3.695,6,m,6.14,1,0,OC[C@H](O)[C@@H](O)[C@@H](O)[C@H](O)CO,InChIKey=FBPFZTCFMRRESA-GUCUJZIJSA-N,2.46,8.43,0.59,42,NaN,19.44,1.735,NaN,NaN,NaN,NaN,NaN,NaN,NaN
L-Arabinose,HMDB00646,3.695,4,m,NA,0.2549,0,O[C@H]1COC(O)[C@H](O)[C@H]1O,InChIKey=SRBFZHDQGSBBOR-HWQSCIPKSA-N,13.62,-3,2.5,8.75,NaN,NaN,14.15,NaN,NaN,NaN,NaN,NaN,NaN,NaN
1-Methylhistidine,HMDB00001,3.695,4,s,NA,1,0,CN1C=NC(C[C@H](N)C(O)=O)=C1,InChIKey=BRMWTNUJHUMWMS-LURJTMIESA-N,1.86,-3,13.1,23.87,NaN,26.34,4,NaN,NaN,NaN,NaN,NaN,NaN,NaN
1.5-Anhydrosorbitol,HMDB02712,3.695,1,dd,12.22 4.26,0.2968,0,OC[C@H]1OC[C@H](O)[C@@H](O)[C@@H]1O,InChIKey=MPCAJMNYNOGXPB-SLPGGIOYSA-N,1.86,-6.7,NaN,NaN,NaN,NaN,62.96666667,NaN,NaN,NaN,NaN,NaN,NaN,NaN
Levoglucosan,HMDB00640,3.695,2,m,NA,0.9148,0,[H][C@@]12OC[C@@H](O1)[C@@H](O)[C@H](O)[C@H]2O,InChIKey=TWNIBLMWSKIRAT-VFUOTHLCSA-N,4.15,-7,NaN,NaN,NaN,NaN,NaN,NaN,NaN,NaN,NaN,NaN,NaN,NaN
(S)-3-Hydroxyisobutyric acid,HMDB00023,3.698,29,m,NA,NA,-1,C[C@@H](CO)C(O)=O,InChIKey=DBXBTMSZEOQQDU-VKHMYHEASA-N,8.89,9.8,NaN,11,NaN,1.23,NaN,NaN,NaN,NaN,NaN,NaN,NaN,NaN
Doxylamine,HMDB01936,3.701,1,ddd,11.77 6.46 3.80,0.0303,1,CN(C)CCOC(C)(C1=CC=CC=C1)C1=NC=CC=C1,InChIKey=HCFDWZZGGLSKEP-UHFFFAOYSA-N,4.63,8.61,NA,NA,NA,NA,NA,NA,NA,NA,NA,NA,NA,NA
1-Methylhistamine,HMDB00898,3.705,3,s,NA,1,1,CN1C=NC(CCN)=C1,InChIKey=FHQDWPCFSJMNCT-UHFFFAOYSA-N,1.78,-1.2,0.00034,0.097666667,NaN,0.0117,0.002,NaN,NaN,NaN,NaN,NaN,NaN,NaN
3.4-Dihydroxyphenylglycol,HMDB00318,3.705,2,d,6.18,0.3493,0,OCC(O)C1=CC(O)=C(O)C=C1,InChIKey=MTVWFVDWRVYDOR-UHFFFAOYSA-N,1.83,-3.6,0.006,NaN,NaN,NaN,NaN,NaN,NaN,NaN,NaN,NaN,NaN,NaN
7-Ketocholesterol,HMDB00501,3.705,2,m,NA,0.0495,0,[H][C@@]12CCC([C@H](C)CCCC(C)C)[C@@]1(C)CC[C@@]1([H])[C@@]2([H])C(=O)C=C2CC(O)CC[C@]12C,InChIKey=YIKKMWSQVKJCOP-QJFKPLHKSA-N,4.65,-6.7,0.056333333,NaN,NaN,NaN,NaN,NaN,NaN,NaN,NaN,NaN,NaN,NaN
L-Hexanoylcarnitine,HMDB00756,3.705,1,dd,NA,0.0239,0,CCCCCC(=O)O[C@H](CC([O-])=O)C[N+](C)(C)C,InChIKey=VVPRQWTYSNDTEA-LLVKDONJSA-N,4.17,-3.3,0.08,NaN,NaN,NaN,NaN,NaN,NaN,NaN,NaN,NaN,NaN,NaN
Ribitol,HMDB00508,3.705,1,dd,NA,0.3308,0,OC[C@H](O)[C@H](O)[C@H](O)CO,InChIKey=HEBKCHPVOIAQTA-ZXFHETKHSA-N,9.83,9.52,0.46,3.5,NaN,NaN,10.765,NaN,NaN,NaN,NaN,NaN,NaN,NaN
Allose,HMDB01151,3.705,1,dd,NA,0.2847,0,[H][C@@]1(CO)OC(O)[C@@]([H])(O)[C@@]([H])(O)[C@@]1([H])O,InChIKey=WQZGKKKJIJFFOK-HOWGCPQDSA-N,10.47,-4.8,NA,NA,NA,NA,NA,NA,NA,NA,NA,NA,NA,NA
Glucosamine 6-phosphate,HMDB01254,3.705,5,m,NA,0.1816,-1,N[C@H]1[C@@H](O)O[C@H](COP(O)(O)=O)[C@@H](O)[C@@H]1O,InChIKey=XHMJOUIAFHJHBW-UKFBFLRUSA-N,7.82,9.73,NA,NA,NA,NA,NA,NA,NA,NA,NA,NA,NA,NA
Hydroxycobalamin,HMDB02308,3.705,1,d,NA,0.0046,2,[Co++].O.OC[C@H]1O[C@@]([H])([C@H](O)[C@]1([H])OP(=O)([O-])O[C@H](C)CNC(=O)CC[C@]1(C)[C@@H](CC(=O)N)[C@@]2([H])[N-]\C1=C(C)/C1=N/C(=C\C3=N\C(=C(C)/C4=N[C@]2(C)[C@@](C)(CC(=O)N)[C@@H]4CCC(=O)N)\[C@@](C)(CC(=O)N)[C@@H]3CCC(=O)N)/C(C)(C)[C@@H]1CCC(=O)N)N1C=NC2=C1C=C(C)C(C)=C2,InChIKey=DQOCFCZRZOAIBN-WZHZPDAFSA-L,2.45,-1.9,NA,NA,NA,NA,NA,NA,NA,NA,NA,NA,NA,NA
N-Stearoylsphingosine,HMDB00829,3.705,0,m,NA,3.00E-04,0,CCCCCCCCCCCCCCCCCC(=O)NC(CO)C(O)\C=C\CCCCCCCCCCCCC,InChIKey=VODZWWMEJITOND-OWWNRXNESA-N,1.23,-3,NA,NA,NA,NA,NA,NA,NA,NA,NA,NA,NA,NA
(R)-3-Hydroxyisobutyric acid,HMDB00336,3.705,2,m,NA,0.2721,-1,C[C@H](CO)C(O)=O,InChIKey=DBXBTMSZEOQQDU-GSVOUGTGSA-N,4.48,-7,NaN,NaN,NaN,NaN,6,NaN,NaN,NaN,NaN,NaN,NaN,NaN
Deoxycholic acid glycine conjugate,HMDB00631,3.705,4,m,NA,0.2367,-1,[H][C@]12CCC3C4CC[C@H]([C@H](C)CCC(=O)NCC(O)=O)[C@@]4(C)[C@@H](O)CC3[C@@]1(C)CC[C@@H](O)C2,InChIKey=WVULKSPCQVQLCU-ZMBDPXIHSA-N,1.86,-6.7,NaN,NaN,NaN,NaN,NaN,NaN,NaN,NaN,NaN,NaN,NaN,NaN
Hydroxykynurenine,HMDB00732,3.705,2,d,5.5,0.0704,0,NC(CC(=O)C1=C(N)C(O)=CC=C1)C(O)=O,InChIKey=VCKPUUFAIGNJHC-UHFFFAOYSA-N,0.83,-3.3,NaN,NaN,NaN,NaN,NaN,NaN,NaN,NaN,NaN,NaN,NaN,NaN
Monomethyl glutaric acid,HMDB00858,3.705,3,s,NA,1,-1,COC(=O)CCCC(O)=O,InChIKey=IBMRTYCHDPMBFN-UHFFFAOYSA-N,3.13,-7.1,NaN,NaN,NaN,NaN,NaN,NaN,NaN,NaN,NaN,NaN,NaN,NaN
N-Acetylgalactosamine,HMDB00212,3.705,2,m,NA,0.0793,0,CC(=O)N[C@H]1[C@@H](O)O[C@H](CO)[C@H](O)[C@@H]1O,InChIKey=OVRNDRQMDRJTHS-CBQIKETKSA-N,15.7,-3.3,NaN,NaN,NaN,NaN,NaN,NaN,NaN,NaN,NaN,NaN,NaN,NaN
Omeprazole,HMDB01913,3.705,3,s,NA,0.6485,0,COC1=CC2=C(C=C1)N=C(N2)S(=O)CC1=NC=C(C)C(OC)=C1C,InChIKey=SUBDBMMJDZJVOS-UHFFFAOYSA-N,3.26,-3.8,NaN,NaN,NaN,NaN,NaN,NaN,NaN,NaN,NaN,NaN,NaN,NaN
Phenylpropanolamine,HMDB01942,3.705,1,m,NA,0.1644,1,C[C@@H](N)[C@@H](O)C1=CC=CC=C1,InChIKey=DLNKOYKMWOXYQA-VXNVDRBHSA-N,1.87,10,NaN,NaN,NaN,NaN,NaN,NaN,NaN,NaN,NaN,NaN,NaN,NaN
Raffinose,HMDB03213,3.705,1,br. s.,NA,0.2722,0,OC[C@H]1O[C@@](CO)(OC2O[C@H](COC3O[C@H](CO)[C@H](O)[C@H](O)[C@H]3O)[C@@H](O)[C@H](O)[C@H]2O)[C@@H](O)[C@@H]1O,InChIKey=MUPFEKGTMRGPLJ-BQCSWRFHSA-N,14.58,-3,NaN,NaN,NaN,NaN,NaN,NaN,NaN,NaN,NaN,NaN,NaN,NaN
Threonic acid,HMDB00943,3.705,1,dd,NA,0.6229,-1,OC[C@@H](O)[C@H](O)C(O)=O,InChIKey=JPIJQSOTBSSVTP-GBXIJSLDSA-N,4.39,-2.9,NaN,10,NaN,NaN,NaN,NaN,NaN,NaN,NaN,NaN,NaN,NaN
D-Fructose,HMDB00660,3.71,21,m,NA,NA,0,OC[C@H]1O[C@](O)(CO)[C@@H](O)[C@@H]1O,InChIKey=RFSUNEUAIZKAJO-ARQDHWQXSA-N,3.61,-7,31,NaN,NaN,NaN,200,NaN,NaN,NaN,NaN,NaN,NaN,NaN
Neopterin,HMDB00845,3.715,1,dd,11.94 6.49,0.2703,0,NC1=NC2=C(N=C(C=N2)C(O)C(O)CO)C(=O)N1,InChIKey=BMQYVXCPAOLZOK-UHFFFAOYSA-N,0.83,-0.77,0.004933333,NaN,NaN,NaN,NaN,NaN,NaN,NaN,NaN,NaN,NaN,NaN
Succinylacetone,HMDB00635,3.715,1,s,NA,0.6743,-1,CC(=O)CC(=O)CCC(O)=O,InChIKey=WYEPBHZLDUPIOD-UHFFFAOYSA-N,4.02,-1.4,0.0815,NaN,NaN,NaN,NaN,0.003,NaN,NaN,NaN,NaN,NaN,NaN
L-Palmitoylcarnitine,HMDB00222,3.715,2,d,13.82,0.0497,0,CCCCCCCCCCCCCCCC(=O)O[C@H](CC([O-])=O)C[N+](C)(C)C,InChIKey=XOMRRQXKHMYMOC-OAQYLSRUSA-N,1.62,-0.58,0.113,0.5,NaN,0.034,NaN,NaN,NaN,NaN,NaN,NaN,NaN,NaN
3-Methylhistidine,HMDB00479,3.715,4,s,NA,1,0,CN1C=NC=C1C[C@H](N)C(O)=O,InChIKey=JDHILDINMRGULE-LURJTMIESA-N,1.82,5.16,2.7,5.26,NaN,27.68,NaN,NaN,NaN,NaN,NaN,NaN,NaN,NaN
Salicin,HMDB03546,3.715,1,dd,12.02 5.42,0.0713,0,OC[C@H]1O[C@@H](OC2=C(CO)C=CC=C2)[C@H](O)[C@@H](O)[C@@H]1O,InChIKey=NGFMICBWJRZIBI-UJPOAAIJSA-N,14.58,-3,NA,NA,NA,NA,NA,NA,NA,NA,NA,NA,NA,NA
D-Maltose,HMDB00163,3.715,2,m,NA,0.6662,0,OC[C@H]1O[C@H](O[C@H]2[C@H](O)[C@H](O)[C@@H](O)O[C@@H]2CO)[C@H](O)[C@@H](O)[C@@H]1O,InChIKey=GUBGYTABKSRVRQ-DKBJLJRDSA-N,7.93,9.34,NaN,NaN,NaN,NaN,NaN,NaN,NaN,NaN,NaN,NaN,NaN,NaN
D-Threitol,HMDB04136,3.715,4,m,NA,1,0,OC[C@@H](O)[C@H](O)CO,InChIKey=UNXHWFMMPAWVPI-QWWZWVQMSA-N,1.86,-6.7,NaN,10,NaN,NaN,NaN,NaN,NaN,NaN,NaN,NaN,NaN,NaN