Metabolite,HMDB Name,Shift (ppm),Hs,Type,J (Hz),Height,Physiological Charge,SMILES,InChlKey,pKa (Strongest Acidic),pKa (Strongest Basic),Blood,Urine,Feces,Saliva,Cerebrospinal Fluid (CSF),Amniotic Fluid,Aqueous Humour,Ascites Fluid,Breast Milk,Lymph,Sweat,Tears
5-Dodecenoic acid,HMDB00529,1.345,21,m,NA,0.0463,-1,CCCCCC\C=C/CCCC(O)=O,InChIKey=IJBFSOLHRKELLR-FPLPWBNLSA-N,-1.9,-1.5,NA,NA,NA,NA,NA,NA,NA,NA,NA,NA,NA,NA
Azythromycin,HMDB01916,1.345,1,m,NA,0.0095,2,CC[C@@H]1OC(=O)[C@H](C)[C@@H](O[C@@H]2C[C@](C)(OC)[C@H](O)[C@@H](C)O2)[C@@H](C)[C@H](O[C@H]2O[C@@H](C)C[C@H]([C@@H]2O)N(C)C)[C@@](C)(O)C[C@H](C)CN(C)[C@@H](C)[C@@H](O)[C@]1(C)O,InChIKey=MQTOSJVFKKJCRP-HHZDEWPHSA-N,3.84,1.99,NA,NA,NA,NA,NA,NA,NA,NA,NA,NA,NA,NA
16-a-Hydroxypregnenolone,HMDB00315,1.345,5,m,NA,0.0504,0,[H][C@@]12C[C@@H](O)[C@H](C(C)=O)[C@@]1(C)CC[C@@]1([H])[C@@]2([H])CC=C2C[C@@H](O)CC[C@]12C,InChIKey=ZAKJZPQDUPCXSD-YRWKUUEZSA-N,18.3,-0.16,NaN,NaN,NaN,NaN,NaN,NaN,NaN,NaN,NaN,NaN,NaN,NaN
2-Hydroxycaproic acid,HMDB01624,1.345,34,m,NA,0.2005,-1,CCCCC(O)C(O)=O,InChIKey=NYHNVHGFPZAZGA-UHFFFAOYSA-N,19.94,-1.6,NaN,NaN,NaN,NaN,NaN,NaN,NaN,NaN,NaN,NaN,NaN,NaN
3-Hydroxysebacic acid,HMDB00350,1.345,5,m,NA,0.0329,-2,OC(CCCCCCC(O)=O)CC(O)=O,InChIKey=OQYZCCKCJQWHIE-UHFFFAOYSA-N,19.09,-4.9,NaN,NaN,NaN,NaN,NaN,NaN,NaN,NaN,NaN,NaN,NaN,NaN
3-Hydroxytetradecanedioic acid,HMDB00394,1.345,12,br. s.,NA,0.0987,-2,OC(CCCCCCCCCCC(O)=O)CC(O)=O,InChIKey=CEDZIURHISELSQ-UHFFFAOYSA-N,17.39,-1.6,NaN,NaN,NaN,NaN,NaN,NaN,NaN,NaN,NaN,NaN,NaN,NaN
CE(16:1(9Z)),HMDB00658,1.345,28,m,NA,0.181,0,CCCCCC\C=C/CCCCCCCC(=O)OC1CC[C@@]2(C)C(=CCC3C4CC[C@H]([C@H](C)CCCC(C)C)[C@@]4(C)CCC23)C1,InChIKey=HODJWNWCVNUPAQ-FSAOOAOSSA-N,1.87,10,NaN,NaN,NaN,NaN,NaN,NaN,NaN,NaN,NaN,NaN,NaN,NaN
Cholestenone,HMDB00921,1.345,4,m,NA,0.2351,0,[H][C@@]12CC[C@H]([C@H](C)CCCC(C)C)[C@@]1(C)CC[C@@]1([H])[C@@]2([H])CCC2=CC(=O)CC[C@]12C,InChIKey=NYOXRYYXRWJDKP-GYKMGIIDSA-N,0.83,7.72,NaN,NaN,NaN,NaN,NaN,NaN,NaN,NaN,NaN,NaN,NaN,NaN
Epi-coprostanol,HMDB01569,1.345,1,dt,12.20 2.96,0.0588,0,[H][C@@]1(CC[C@@]2([H])[C@]3([H])CC[C@@]4([H])C[C@H](O)CC[C@]4(C)[C@@]3([H])CC[C@]12C)[C@H](C)CCCC(C)C,InChIKey=QYIXCDOBOSTCEI-FBVYSKEZSA-N,1.36,-1.4,NaN,NaN,NaN,NaN,NaN,NaN,NaN,NaN,NaN,NaN,NaN,NaN
Hexanoylglycine,HMDB00701,1.345,30,m,NA,0.6727,-1,CCCCCC(=O)NCC(O)=O,InChIKey=UPCKIPHSXMXJOX-UHFFFAOYSA-N,0.73,-0.95,NaN,1,NaN,NaN,NaN,NaN,NaN,NaN,NaN,NaN,NaN,NaN
L-Hexanoylcarnitine,HMDB00756,1.355,4,m,NA,0.0458,0,CCCCCC(=O)O[C@H](CC([O-])=O)C[N+](C)(C)C,InChIKey=VVPRQWTYSNDTEA-LLVKDONJSA-N,4.17,-3.3,0.08,NaN,NaN,NaN,NaN,NaN,NaN,NaN,NaN,NaN,NaN,NaN
Alpha-Hydroxyisobutyric acid,HMDB00729,1.355,6,s,NA,1,-1,CC(C)(O)C(O)=O,InChIKey=BWLBGMIXKSTLSX-UHFFFAOYSA-N,3.68,8.2,7.6,NaN,NaN,9,NaN,NaN,NaN,NaN,NaN,NaN,NaN,NaN
16-Dehydroprogesterone,HMDB00995,1.355,1,td,12.76 4.70,0.0801,0,[H][C@@]12CC=C(C(C)=O)[C@@]1(C)CC[C@@]1([H])[C@@]2([H])CCC2=CC(=O)CC[C@]12C,InChIKey=VRRHHTISESGZFN-RKFFNLMFSA-N,2.52,-0.94,NA,NA,NA,NA,NA,NA,NA,NA,NA,NA,NA,NA
3-Phenylbutyric acid,HMDB01955,1.355,26,d,7,1,-1,CC(CC(O)=O)C1=CC=CC=C1,InChIKey=ZZEWMYILWXCRHZ-UHFFFAOYSA-N,14.22,10.21,NA,NA,NA,NA,NA,NA,NA,NA,NA,NA,NA,NA
Canrenone,HMDB03033,1.355,2,m,NA,0.0264,0,[H][C@@]12CC[C@@]3(CCC(=O)O3)[C@@]1(C)CC[C@@]1([H])[C@@]2([H])C=CC2=CC(=O)CC[C@]12C,InChIKey=UJVLDDZCTMKXJK-WNHSNXHDSA-N,6.68,-0.81,NA,NA,NA,NA,NA,NA,NA,NA,NA,NA,NA,NA
Heneicosanoic acid,HMDB02345,1.355,3,m,NA,0.0213,-1,CCCCCCCCCCCCCCCCCCCCC(O)=O,InChIKey=CKDDRHZIAZRDBW-UHFFFAOYSA-N,11.59,10,NA,NA,NA,NA,NA,NA,NA,NA,NA,NA,NA,NA
17a-Hydroxypregnenolone,HMDB00363,1.355,5,m,NA,0.0706,0,[H][C@@]12CC[C@](O)(C(C)=O)[C@@]1(C)CC[C@@]1([H])[C@@]2([H])CC=C2C[C@@H](O)CC[C@]12C,InChIKey=JERGUCIJOXJXHF-TVWVXWENSA-N,4.56,-0.76,NaN,NaN,NaN,NaN,NaN,NaN,NaN,NaN,NaN,NaN,NaN,NaN
2-Hydroxyestradiol,HMDB00338,1.355,1,m,NA,0.0324,0,[H][C@@]12CC[C@H](O)[C@@]1(C)CC[C@]1([H])C3=C(CC[C@@]21[H])C=C(O)C(O)=C3,InChIKey=DILDHNKDVHLEQB-XSSYPUMDSA-N,1.86,-6.7,NaN,NaN,NaN,NaN,NaN,NaN,NaN,NaN,NaN,NaN,NaN,NaN
Androstanedione,HMDB00899,1.355,1,dd,12.17 5.01,0.0827,0,[H][C@@]12CCC(=O)[C@@]1(C)CC[C@@]1([H])[C@@]2([H])CC[C@@]2([H])CC(=O)CC[C@]12C,InChIKey=RAJWOBJTTGJROA-WZNAKSSCSA-N,1.86,-3,NaN,NaN,NaN,NaN,NaN,NaN,NaN,NaN,NaN,NaN,NaN,NaN
Citramalic acid,HMDB00426,1.355,3,s,NA,1,-2,CC(O)(CC(O)=O)C(O)=O,InChIKey=XFTRTWQBIOMVPK-UHFFFAOYSA-N,11.6,9.8,NaN,NaN,NaN,NaN,NaN,NaN,NaN,NaN,NaN,NaN,NaN,NaN
Gabapentin,HMDB05015,1.355,4,m,NA,0.1597,0,NCC1(CC(O)=O)CCCCC1,InChIKey=UGJMXCAKCUNAIE-UHFFFAOYSA-N,1.87,10,NaN,NaN,NaN,NaN,NaN,NaN,NaN,NaN,NaN,NaN,NaN,NaN
Octadecanol,HMDB02350,1.355,2,m,NA,0.02,0,CCCCCCCCCCCCCCCCCCO,InChIKey=GLDOVTGHNKAZLK-UHFFFAOYSA-N,12.18,10,NaN,NaN,NaN,NaN,NaN,NaN,NaN,NaN,NaN,NaN,NaN,NaN
7-Ketocholesterol,HMDB00501,1.365,10,m,NA,0.171,0,[H][C@@]12CCC([C@H](C)CCCC(C)C)[C@@]1(C)CC[C@@]1([H])[C@@]2([H])C(=O)C=C2CC(O)CC[C@]12C,InChIKey=YIKKMWSQVKJCOP-QJFKPLHKSA-N,4.65,-6.7,0.056333333,NaN,NaN,NaN,NaN,NaN,NaN,NaN,NaN,NaN,NaN,NaN
Delta-Hexanolactone,HMDB00453,1.365,3,d,6.38,1,0,CC1CCCC(=O)O1,InChIKey=RZTOWFMDBDPERY-UHFFFAOYSA-N,1.86,5.14,NA,NA,NA,NA,NA,NA,NA,NA,NA,NA,NA,NA
Medroxyprogesterone,HMDB01939,1.365,3,m,NA,0.0412,0,[H][C@@]12CC[C@](O)(C(C)=O)[C@@]1(C)CC[C@@]1([H])[C@@]2([H])C[C@H](C)C2=CC(=O)CC[C@]12C,InChIKey=FRQMUZJSZHZSGN-HBNHAYAOSA-N,4.94,1.15,NA,NA,NA,NA,NA,NA,NA,NA,NA,NA,NA,NA
2-Hydroxyestrone,HMDB00343,1.365,3,m,NA,0.1537,0,[H][C@@]12CCC(=O)[C@@]1(C)CC[C@]1([H])C3=C(CC[C@@]21[H])C=C(O)C(O)=C3,InChIKey=SWINWPBPEKHUOD-JPVZDGGYSA-N,4,-2.8,NaN,NaN,NaN,NaN,NaN,NaN,NaN,NaN,NaN,NaN,NaN,NaN
Cadaverine,HMDB02322,1.365,2,m,NA,0.2512,2,NCCCCCN,InChIKey=VHRGRCVQAFMJIZ-UHFFFAOYSA-N,2.8,-7,NaN,0.229,NaN,NaN,NaN,NaN,NaN,NaN,NaN,NaN,NaN,NaN
L-Norleucine,HMDB01645,1.368,39,m,NA,0.0919,0,CCCC[C@H](N)C(O)=O,InChIKey=LRQKBLKVPFOOQJ-YFKPBYRVSA-N,-1.2,-3.2,NaN,NaN,NaN,NaN,NaN,NaN,NaN,NaN,NaN,NaN,NaN,NaN
Taurocholic acid,HMDB00036,1.375,9,m,NA,0.2107,-1,[H][C@@]12C[C@H](O)CCC1(C)C1C[C@H](O)C3(C)C(CCC3C1[C@H](O)C2)C(C)CCC(=O)NCCS(O)(=O)=O,InChIKey=WBWWGRHZICKQGZ-BKXUXKPJSA-N,19.03,-2.8,0.38,NaN,NaN,NaN,NaN,NaN,NaN,NaN,NaN,NaN,NaN,NaN
7-Dehydrocholesterol,HMDB00032,1.375,13,m,NA,0.2246,0,[H][C@@]12CC[C@H]([C@H](C)CCCC(C)C)[C@@]1(C)CC[C@@]1([H])C2=CC=C2C[C@@H](O)CC[C@]12C,InChIKey=UCTLRSWJYQTBFZ-DDPQNLDTSA-N,11.25,4.99,5,0.029,NaN,NaN,0,NaN,NaN,NaN,NaN,NaN,NaN,NaN
Alpha-Tocopherol,HMDB01893,1.375,13,m,NA,0.3585,0,CC(C)CCC[C@@H](C)CCC[C@@H](C)CCC[C@]1(C)CCC2=C(O1)C(C)=C(C)C(O)=C2C,InChIKey=GVJHHUAWPYXKBD-IEOSBIPESA-N,10.07,-4.2,30.94,NaN,NaN,0.082,NaN,NaN,NaN,NaN,NaN,NaN,NaN,NaN
3a.6b.7b-Trihydroxy-5b-cholanoic acid,HMDB00415,1.375,4,m,NA,0.2468,-1,[H][C@@]12CC[C@H]([C@H](C)CCC(O)=O)[C@@]1(C)CC[C@@]1([H])[C@@]2([H])[C@@H](O)[C@@H](O)[C@]2([H])C[C@H](O)CC[C@]12C,InChIKey=DKPMWHFRUGMUKF-CRKPLTDNSA-N,3.85,-3,NA,NA,NA,NA,NA,NA,NA,NA,NA,NA,NA,NA
Benzocaine,HMDB04992,1.375,3,t,7.13,0.5556,0,CCOC(=O)C1=CC=C(N)C=C1,InChIKey=BLFLLBZGZJTVJG-UHFFFAOYSA-N,1.87,10,NA,NA,NA,NA,NA,NA,NA,NA,NA,NA,NA,NA
N-Stearoylsphingosine,HMDB00829,1.375,2,m,NA,6.00E-04,0,CCCCCCCCCCCCCCCCCC(=O)NC(CO)C(O)\C=C\CCCCCCCCCCCCC,InChIKey=VODZWWMEJITOND-OWWNRXNESA-N,1.23,-3,NA,NA,NA,NA,NA,NA,NA,NA,NA,NA,NA,NA
Atenolol,HMDB01924,1.375,6,dd,6.55 4.51,1,1,CC(C)NCC(O)COC1=CC=C(CC(N)=O)C=C1,InChIKey=METKIMKYRPQLGS-UHFFFAOYSA-N,15.74,-0.94,NaN,NaN,NaN,NaN,NaN,NaN,NaN,NaN,NaN,NaN,NaN,NaN
Metoprolol,HMDB01932,1.375,6,t,7.31,0.3304,1,COCCC1=CC=C(OCC(O)CNC(C)C)C=C1,InChIKey=IUBSYMUCCVWXPE-UHFFFAOYSA-N,0.83,7.85,NaN,NaN,NaN,NaN,NaN,NaN,NaN,NaN,NaN,NaN,NaN,NaN
Mevalonic acid,HMDB00227,1.38,3,s,NA,0.0437,-1,CC(O)(CCO)CC(O)=O,InChIKey=KJTLQQUUPVSXIM-UHFFFAOYSA-N,3.44,-2.9,0.028,0.217775,NaN,NaN,NaN,NaN,NaN,NaN,NaN,NaN,NaN,NaN
Corticosterone,HMDB01547,1.385,4,m,NA,0.2547,0,[H][C@@]12CC[C@H](C(=O)CO)[C@@]1(C)C[C@H](O)[C@@]1([H])[C@@]2([H])CCC2=CC(=O)CC[C@]12C,InChIKey=OMFXVFTZEKFJBZ-HJTSIMOOSA-N,2.79,-0.13,0.027,NaN,NaN,NaN,NaN,NaN,NaN,NaN,NaN,NaN,NaN,NaN
Acetoin,HMDB03243,1.385,3,d,7.15,0.8179,0,CC(O)C(C)=O,InChIKey=ROWKJAVDOGWPAT-UHFFFAOYSA-N,14.58,-3,1.06,NaN,NaN,NaN,NaN,NaN,NaN,NaN,NaN,NaN,NaN,NaN
Lathosterol,HMDB01170,1.385,5,br. s.,NA,0.0106,0,[H][C@@]1(CC[C@@]2([H])C3=CC[C@@]4([H])C[C@@H](O)CC[C@]4(C)[C@@]3([H])CC[C@]12C)[C@H](C)CCCC(C)C,InChIKey=IZVFFXVYBHFIHY-SKCNUYALSA-N,1.57,-2.4,3.905,NaN,NaN,NaN,NaN,NaN,NaN,NaN,NaN,NaN,NaN,NaN
3a.6a.7b-Trihydroxy-5b-cholanoic acid,HMDB00364,1.385,4,m,NA,0.1843,-1,[H][C@@]12CC[C@H]([C@H](C)CCC(O)=O)[C@@]1(C)CC[C@@]1([H])[C@@]2([H])[C@@H](O)[C@H](O)[C@]2([H])C[C@H](O)CC[C@]12C,InChIKey=DKPMWHFRUGMUKF-NTPBNISXSA-N,1.08,-3.4,NA,NA,NA,NA,NA,NA,NA,NA,NA,NA,NA,NA
2-Methoxyestrone,HMDB00010,1.385,3,m,NA,0.0734,0,[H][C@@]12CCC(=O)[C@@]1(C)CC[C@]1([H])C3=C(CC[C@@]21[H])C=C(O)C(OC)=C3,InChIKey=WHEUWNKSCXYKBU-QPWUGHHJSA-N,1.87,10,NaN,0.005,NaN,NaN,NaN,NaN,NaN,NaN,NaN,NaN,NaN,NaN
Aminocaproic acid,HMDB01901,1.385,2,m,NA,0.1961,0,NCCCCCC(O)=O,InChIKey=SLXKOJJOQWFEFD-UHFFFAOYSA-N,0.83,2.06,NaN,NaN,NaN,NaN,NaN,NaN,NaN,NaN,NaN,NaN,NaN,NaN
Arachidyl alcohol,HMDB11619,1.385,2,m,NA,0.0086,0,CCCCCCCCCCCCCCCCCCCCO,InChIKey=BTFJIXJJCSYFAL-UHFFFAOYSA-N,1.86,-3,NaN,NaN,NaN,NaN,NaN,NaN,NaN,NaN,NaN,NaN,NaN,NaN
Deoxycorticosterone,HMDB00016,1.385,2,m,NA,0.0823,0,[H][C@@]12CC[C@H](C(=O)CO)[C@@]1(C)CC[C@@]1([H])[C@@]2([H])CCC2=CC(=O)CC[C@]12C,InChIKey=ZESRJSPZRDMNHY-YFWFAHHUSA-N,-1.9,-2.7,NaN,NaN,NaN,NaN,NaN,NaN,NaN,NaN,NaN,NaN,NaN,NaN
Mevalonolactone,HMDB06024,1.385,2,s,NA,1,0,C[C@]1(O)CCOC(=O)C1,InChIKey=JYVXNLLUYHCIIH-LURJTMIESA-N,1.86,-3,NaN,NaN,NaN,NaN,NaN,NaN,NaN,NaN,NaN,NaN,NaN,NaN
Corticosterone,HMDB01547,1.395,3,s,NA,0.2547,0,[H][C@@]12CC[C@H](C(=O)CO)[C@@]1(C)C[C@H](O)[C@@]1([H])[C@@]2([H])CCC2=CC(=O)CC[C@]12C,InChIKey=OMFXVFTZEKFJBZ-HJTSIMOOSA-N,2.79,-0.13,0.027,NaN,NaN,NaN,NaN,NaN,NaN,NaN,NaN,NaN,NaN,NaN
Glycocholic acid,HMDB00138,1.395,6,m,NA,0.369,-1,[H][C@@]12CC[C@H]([C@H](C)CCC(=O)NCC(O)=O)[C@@]1(C)[C@@H](O)C[C@@]1([H])[C@@]2([H])[C@H](O)CC2C[C@H](O)CC[C@]12C,InChIKey=RFDAIACWWDREDC-MZMBZMQMSA-N,4.55,8.85,0.06,0.42,NaN,NaN,NaN,NaN,NaN,NaN,NaN,NaN,NaN,NaN
16a-Hydroxyestrone,HMDB00335,1.395,4,m,NA,0.0196,0,[H][C@@]12C[C@@H](O)C(=O)[C@@]1(C)CC[C@]1([H])C3=C(CC[C@@]21[H])C=C(O)C=C3,InChIKey=WPOCIZJTELRQMF-QFXBJFAPSA-N,4.48,9.66,NaN,NaN,NaN,NaN,NaN,NaN,NaN,NaN,NaN,NaN,NaN,NaN
Androstanedione,HMDB00899,1.395,1,d,4,0.1583,0,[H][C@@]12CCC(=O)[C@@]1(C)CC[C@@]1([H])[C@@]2([H])CC[C@@]2([H])CC(=O)CC[C@]12C,InChIKey=RAJWOBJTTGJROA-WZNAKSSCSA-N,1.86,-3,NaN,NaN,NaN,NaN,NaN,NaN,NaN,NaN,NaN,NaN,NaN,NaN
Glycyrrhetinic acid,HMDB11628,1.395,8,m,NA,0.8886,-1,CC1(C)[C@@H](O)CC[C@@]2(C)C1CC[C@]1(C)C2C(=O)C=C2C3C[C@](C)(CC[C@]3(C)CC[C@@]12C)C(O)=O,InChIKey=MPDGHEJMBKOTSU-WFJWTYAKSA-N,1.86,-3,NaN,NaN,NaN,NaN,NaN,NaN,NaN,NaN,NaN,NaN,NaN,NaN
Lipoamide,HMDB00962,1.395,2,m,NA,0.1447,0,NC(=O)CCCCC1CCSS1,InChIKey=FCCDDURTIIUXBY-UHFFFAOYSA-N,1.87,-4.7,NaN,NaN,NaN,NaN,NaN,NaN,NaN,NaN,NaN,NaN,NaN,NaN
Valproic acid,HMDB01877,1.395,4,m,NA,0.1042,-1,CCCC(CCC)C(O)=O,InChIKey=NIJJYAXOARWZEE-UHFFFAOYSA-N,4.45,4.95,NaN,NaN,NaN,NaN,NaN,NaN,NaN,NaN,NaN,NaN,NaN,NaN
Biotin,HMDB00030,1.405,2,m,NA,NA,-1,[H][C@]12CS[C@@H](CCCCC(O)=O)[C@@]1([H])NC(=O)N2,InChIKey=YBJHBAHKTGYVGT-ZKWXMUAHSA-N,4.36,-3,0.00127,0.036,NaN,0.071,NaN,NaN,NaN,NaN,NaN,NaN,NaN,NaN
Sphingosine,HMDB00252,1.405,2,m,NA,0.0535,1,CCCCCCCCCCCCC\C=C\C(O)C(N)CO,InChIKey=WWUZIQQURGPMPG-CCEZHUSRSA-N,10.33,-2.7,0.05,3.85E-05,NaN,NaN,NaN,NaN,NaN,NaN,NaN,NaN,NaN,NaN
PC(16:0/16:0),HMDB00564,1.405,56,m,NA,1,0,CCCCCCCCCCCCCCCC(=O)OC[C@H](COP([O-])(=O)OCC[N+](C)(C)C)OC(=O)CCCCCCCCCCCCCCC,InChIKey=KILNVBDSWZSGLL-KXQOOQHDSA-N,4.6,-2.9,584.557,NaN,NaN,NaN,NaN,NaN,NaN,NaN,NaN,NaN,NaN,NaN
Parathion,HMDB01355,1.405,6,td,NA,0.0784,0,CCOP(=S)(OCC)OC1=CC=C(C=C1)[N+]([O-])=O,InChIKey=LCCNCVORNKJIRZ-UHFFFAOYSA-N,10.71,9.71,NaN,NaN,NaN,NaN,NaN,NaN,NaN,NaN,NaN,NaN,NaN,NaN
Propranolol,HMDB01849,1.405,6,dd,6.43 5.38,1,1,CC(C)NCC(O)COC1=CC=CC2=CC=CC=C12,InChIKey=AQHHHDLHHXJYJD-UHFFFAOYSA-N,3.16,-4.2,NaN,NaN,NaN,NaN,NaN,NaN,NaN,NaN,NaN,NaN,NaN,NaN
Lithocholic acid,HMDB00761,1.415,21,m,NA,0.1402,-1,[H][C@@]12CC[C@H]([C@H](C)CCC(O)=O)[C@@]1(C)CC[C@@]1([H])[C@@]2([H])CCC2C[C@H](O)CC[C@]12C,InChIKey=SMEROWZSTRWXGI-YPLGJCPNSA-N,1.77,-1.8,0.33,NaN,NaN,NaN,NaN,NaN,NaN,NaN,NaN,NaN,NaN,NaN
D-Lactic acid,HMDB01311,1.415,4,d,7,1,-1,C[C@@H](O)C(O)=O,InChIKey=JVTAAEKCZFNVCJ-UWTATZPHSA-N,4.89,9.11,11,8,NaN,NaN,NaN,NaN,NaN,NaN,NaN,NaN,NaN,NaN
Biocytin,HMDB03134,1.415,4,m,NA,0.4972,0,[H][C@]12CS[C@@H](CCCCC(=O)NCCCC[C@H](N)C(O)=O)[C@@]1([H])NC(=O)N2,InChIKey=BAQMYDQNMFBZNA-MNXVOIDGSA-N,14.58,-3,NA,NA,NA,NA,NA,NA,NA,NA,NA,NA,NA,NA
N-Alpha-acetyllysine,HMDB00446,1.415,1,dq,7.71,0.1443,0,CC(=O)NC(CCCCN)C(O)=O,InChIKey=VEYYWZRYIYDQJM-UHFFFAOYSA-N,13.85,-0.16,NaN,NaN,NaN,NaN,NaN,NaN,NaN,NaN,NaN,NaN,NaN,NaN
Taurodeoxycholic acid,HMDB00896,1.415,6,br. s.,NA,0.5305,-1,[H][C@@]1(CC[C@@]2([H])[C@]3([H])CC[C@]4([H])C[C@H](O)CC[C@]4(C)[C@@]3([H])C[C@H](O)[C@]12C)[C@H](C)CCC(=O)NCCS(O)(=O)=O,InChIKey=AWDRATDZQPNJFN-VAYUFCLWSA-N,1.86,-6.7,NaN,NaN,NaN,NaN,NaN,NaN,NaN,NaN,NaN,NaN,NaN,NaN
Testosterone,HMDB00234,1.415,3,m,NA,0.1066,0,[H][C@@]12CC[C@H](O)[C@@]1(C)CC[C@@]1([H])[C@@]2([H])CCC2=CC(=O)CC[C@]12C,InChIKey=MUMGGOZAMZWBJJ-DYKIIFRCSA-N,4.56,-2.8,NaN,1.07,NaN,NaN,NaN,NaN,NaN,NaN,NaN,NaN,NaN,NaN
Etiocholanolone,HMDB00490,1.425,2,m,NA,0.0703,0,[H][C@@]12CCC(=O)[C@@]1(C)CC[C@@]1([H])[C@@]2([H])CC[C@]2([H])C[C@H](O)CC[C@]12C,InChIKey=QGXBDMJGAMFCBF-BNSUEQOYSA-N,3.89,9.5,0.0013,NaN,NaN,NaN,NaN,NaN,NaN,NaN,NaN,NaN,NaN,NaN
Sphinganine,HMDB00269,1.425,1,m,NA,0.0068,1,CCCCCCCCCCCCCCC[C@@H](O)[C@@H](N)CO,InChIKey=OTKJDMGTUTTYMP-ZWKOTPCHSA-N,18.3,-2.4,0.011,0.00023,NaN,NaN,NaN,NaN,NaN,NaN,NaN,NaN,NaN,NaN
Menthol,HMDB03352,1.425,1,m,NA,0.0523,0,CC(C)[C@@H]1CC[C@@H](C)C[C@H]1O,InChIKey=NOOLISFMXDJSKH-KXUCPTDWSA-N,14.58,-3,0.064,NaN,NaN,NaN,NaN,NaN,NaN,NaN,NaN,NaN,NaN,NaN
Taurocholic acid,HMDB00036,1.425,2,m,NA,0.1475,-1,[H][C@@]12C[C@H](O)CCC1(C)C1C[C@H](O)C3(C)C(CCC3C1[C@H](O)C2)C(C)CCC(=O)NCCS(O)(=O)=O,InChIKey=WBWWGRHZICKQGZ-BKXUXKPJSA-N,19.03,-2.8,0.38,NaN,NaN,NaN,NaN,NaN,NaN,NaN,NaN,NaN,NaN,NaN
SM(d18:1/18:0),HMDB01348,1.425,1,m,NA,0.0066,0,CCCCCCCCCCCCCCCCCC(=O)N[C@@]([H])(COP(O)(=O)OCC[N+](C)(C)C)[C@]([H])(O)\C=C\CCCCCCCCCCCCC,InChIKey=LKQLRGMMMAHREN-YJFXYUILSA-O,1.86,-6.7,157.1,NaN,NaN,0.121,NaN,NaN,NaN,NaN,NaN,NaN,NaN,NaN
17-alpha.20-alpha-Dihydroxypregn-4-en-3-one,HMDB11653,1.425,1,m,NA,0.0544,0,[H][C@@]12CC[C@](O)([C@H](C)O)[C@@]1(C)CC[C@@]1([H])[C@@]2([H])CCC2=CC(=O)CC[C@]12C,InChIKey=MASCESDECGBIBB-HNXXTFFGSA-N,1.86,-3,NA,NA,NA,NA,NA,NA,NA,NA,NA,NA,NA,NA
Muramic acid,HMDB03254,1.425,6,dd,7.04 2.81,1,0,C[C@@H](O[C@H]1[C@@H](N)[C@H](O)O[C@H](CO)[C@H]1O)C(O)=O,InChIKey=MSFSPUZXLOGKHJ-LEISLEKSSA-N,14.58,-3,NA,NA,NA,NA,NA,NA,NA,NA,NA,NA,NA,NA
3-Hydroxydodecanedioic acid,HMDB00413,1.425,1,m,NA,0.052,-2,OC(CCCCCCCCC(O)=O)CC(O)=O,InChIKey=FYVQCLGZFXHEGL-UHFFFAOYSA-N,18.3,9.59,NaN,NaN,NaN,NaN,NaN,NaN,NaN,NaN,NaN,NaN,NaN,NaN
Alpha-Aspartyl-lysine,HMDB04987,1.425,2,tt,7.79,0.4046,0,NCCCC[C@H](NC(=O)[C@@H](N)CC(O)=O)C(O)=O,InChIKey=OAMLVOVXNKILLQ-BQBZGAKWSA-N,1.87,10,NaN,NaN,NaN,NaN,NaN,NaN,NaN,NaN,NaN,NaN,NaN,NaN
Ergocalciferol,HMDB00900,1.425,4,m,NA,0.0269,0,CC(C)[C@@H](C)\C=C\[C@@H](C)[C@H]1CC[C@@]2([H])\C(CCC[C@]12C)=C\C=C1\C[C@@H](O)CCC1=C,InChIKey=MECHNRXZTMCUDQ-RKHKHRCZSA-N,3.25,-6.3,NaN,NaN,NaN,0.008,NaN,NaN,NaN,NaN,NaN,NaN,NaN,NaN
N6-Acetyl-L-lysine,HMDB00206,1.425,2,m,NA,0.0553,0,CC(=O)NCCCC[C@H](N)C(O)=O,InChIKey=DTERQYGMUDWYAZ-ZETCQYMHSA-N,9.77,-1.4,NaN,NaN,NaN,NaN,NaN,NaN,NaN,NaN,NaN,NaN,NaN,NaN
Aldosterone,HMDB00037,1.435,4,m,NA,0.0357,0,C[C@]12CCC(=O)C=C1CCC1C3CC[C@H](C(=O)CO)[C@]3(C[C@H](O)C21)C=O,InChIKey=PQSUYGKTWSAVDQ-SRPWZAMTSA-N,4.03,-3,6.80E-05,0.01,NaN,NA,NaN,NaN,NaN,NaN,NaN,NaN,NaN,NaN
17a-Ethynylestradiol,HMDB01926,1.435,16,m,NA,0.1987,0,[H][C@@]12CC[C@@](O)(C#C)[C@@]1(C)CC[C@]1([H])C3=CC=C(O)C=C3CC[C@@]21[H],InChIKey=BFPYWIDHMRZLRN-SLHNCBLASA-N,18.38,9.27,0.00016,NaN,NaN,NaN,NaN,NaN,NaN,NaN,NaN,NaN,NaN,NaN
Estriol,HMDB00153,1.435,2,m,NA,0.1578,0,[H][C@@]12C[C@@H](O)[C@H](O)[C@@]1(C)CC[C@]1([H])C3=C(CC[C@@]21[H])C=C(O)C=C3,InChIKey=PROQIPRRNZUXQM-ZXXIGWHRSA-N,2.84,5.54,0.006,NaN,NaN,NaN,NaN,0.0023,NaN,NaN,NaN,NaN,NaN,NaN
Beta-Sitosterol,HMDB00852,1.435,6,m,NA,0.0074,0,[H][C@@]1(CC[C@@]2([H])[C@]3([H])CC=C4C[C@@H](O)CC[C@]4(C)[C@@]3([H])CC[C@]12C)[C@H](C)CC[C@@H](CC)C(C)C,InChIKey=KZJWDPNRJALLNS-VJSFXXLFSA-N,-33,-2,9.744,NaN,NaN,NaN,NaN,NaN,NaN,NaN,NaN,NaN,NaN,NaN
Danazol,HMDB02835,1.435,3,m,NA,0.0894,0,[H][C@@]12CC[C@@](O)(C#C)[C@@]1(C)CC[C@@]1([H])[C@@]2([H])CCC2=CC3=C(C[C@]12C)C=NO3,InChIKey=POZRVZJJTULAOH-LHZXLZLDSA-N,2.89,-3.5,NA,NA,NA,NA,NA,NA,NA,NA,NA,NA,NA,NA
Androstanedione,HMDB00899,1.435,2,m,NA,0.1698,0,[H][C@@]12CCC(=O)[C@@]1(C)CC[C@@]1([H])[C@@]2([H])CC[C@@]2([H])CC(=O)CC[C@]12C,InChIKey=RAJWOBJTTGJROA-WZNAKSSCSA-N,1.86,-3,NaN,NaN,NaN,NaN,NaN,NaN,NaN,NaN,NaN,NaN,NaN,NaN
Epiandrosterone,HMDB00365,1.435,2,m,NA,0.1543,0,[H][C@@]12CCC(=O)[C@@]1(C)CC[C@@]1([H])[C@@]2([H])CCC2C[C@@H](O)CC[C@]12C,InChIKey=QGXBDMJGAMFCBF-QRIARFFBSA-N,9.61,-3,NaN,NaN,NaN,NaN,NaN,NaN,NaN,NaN,NaN,NaN,NaN,NaN
Deoxycholic acid,HMDB00626,1.445,25,m,NA,0.147,-1,[H][C@@]12CC[C@H]([C@H](C)CCC(O)=O)[C@@]1(C)[C@@H](O)C[C@@]1([H])[C@@]2([H])CC[C@]2([H])C[C@H](O)CC[C@]12C,InChIKey=KXGVEGMKQFWNSR-LLQZFEROSA-N,4.73,-2,0.33,NaN,NaN,NaN,NaN,NaN,NaN,NaN,NaN,NaN,NaN,NaN
Homo-L-arginine,HMDB00670,1.445,2,m,NA,0.1621,1,N[C@@H](CCCCNC(N)=N)C(O)=O,InChIKey=QUOGESRFPZDMMT-YFKPBYRVSA-N,1.14,-3.7,3.56,0.98,NaN,NaN,NaN,NaN,NaN,NaN,NaN,NaN,NaN,NaN
11a-Hydroxyprogesterone,HMDB00920,1.445,2,s,NA,1,0,[H][C@@]12CCC(C(C)=O)[C@@]1(C)C[C@@H](O)[C@@]1([H])[C@@]2([H])CCC2=CC(=O)CC[C@]12C,InChIKey=BFZHCUBIASXHPK-ODYOLWGQSA-N,16.38,10.67,NA,NA,NA,NA,NA,NA,NA,NA,NA,NA,NA,NA
16-Dehydroprogesterone,HMDB00995,1.445,1,m,NA,0.0762,0,[H][C@@]12CC=C(C(C)=O)[C@@]1(C)CC[C@@]1([H])[C@@]2([H])CCC2=CC(=O)CC[C@]12C,InChIKey=VRRHHTISESGZFN-RKFFNLMFSA-N,2.52,-0.94,NA,NA,NA,NA,NA,NA,NA,NA,NA,NA,NA,NA
17-Epiestriol,HMDB00356,1.445,2,m,NA,0.1027,0,C[C@]12CCC3C(CCC4=C3C=CC(O)=C4)C1C[C@@H](O)[C@H]2O,InChIKey=PROQIPRRNZUXQM-MAHASAQBSA-N,4.09,-3.5,NA,NA,NA,NA,NA,NA,NA,NA,NA,NA,NA,NA
Dimethylmalonic acid,HMDB02001,1.445,5,s,NA,1,-2,CC(C)(C(O)=O)C(O)=O,InChIKey=OREAFAJWWJHCOT-UHFFFAOYSA-N,0.83,-1.6,NA,NA,NA,NA,NA,NA,NA,NA,NA,NA,NA,NA
Hydroxycobalamin,HMDB02308,1.445,3,s,NA,0.0218,2,[Co++].O.OC[C@H]1O[C@@]([H])([C@H](O)[C@]1([H])OP(=O)([O-])O[C@H](C)CNC(=O)CC[C@]1(C)[C@@H](CC(=O)N)[C@@]2([H])[N-]\C1=C(C)/C1=N/C(=C\C3=N\C(=C(C)/C4=N[C@]2(C)[C@@](C)(CC(=O)N)[C@@H]4CCC(=O)N)\[C@@](C)(CC(=O)N)[C@@H]3CCC(=O)N)/C(C)(C)[C@@H]1CCC(=O)N)N1C=NC2=C1C=C(C)C(C)=C2,InChIKey=DQOCFCZRZOAIBN-WZHZPDAFSA-L,2.45,-1.9,NA,NA,NA,NA,NA,NA,NA,NA,NA,NA,NA,NA
trans-2-Octenoic acid,HMDB01568,1.445,2,t,7.29,0.2468,-1,CCCCC\C=C\C(O)=O,InChIKey=CWMPPVPFLSZGCY-VOTSOKGWSA-N,14.58,-1.3,NA,NA,NA,NA,NA,NA,NA,NA,NA,NA,NA,NA
2-Hydroxyestrone,HMDB00343,1.445,2,m,NA,0.102,0,[H][C@@]12CCC(=O)[C@@]1(C)CC[C@]1([H])C3=C(CC[C@@]21[H])C=C(O)C(O)=C3,InChIKey=SWINWPBPEKHUOD-JPVZDGGYSA-N,4,-2.8,NaN,NaN,NaN,NaN,NaN,NaN,NaN,NaN,NaN,NaN,NaN,NaN
3-Hydroxytetradecanedioic acid,HMDB00394,1.445,2,m,NA,0.0156,-2,OC(CCCCCCCCCCC(O)=O)CC(O)=O,InChIKey=CEDZIURHISELSQ-UHFFFAOYSA-N,17.39,-1.6,NaN,NaN,NaN,NaN,NaN,NaN,NaN,NaN,NaN,NaN,NaN,NaN
Ethylmethylacetic acid,HMDB02176,1.445,1,m,NA,0.1509,-1,CCC(C)C(O)=O,InChIKey=WLAMNBDJUVNPJU-UHFFFAOYSA-N,4.82,-3.7,NaN,NaN,NaN,8.04,NaN,NaN,NaN,NaN,NaN,NaN,NaN,NaN
Perillic acid,HMDB04586,1.445,1,m,NA,0.0475,-1,CC(=C)C1CCC(=CC1)C(O)=O,InChIKey=CDSMSBUVCWHORP-UHFFFAOYSA-N,1.89,-6.6,NaN,NaN,NaN,NaN,NaN,NaN,NaN,NaN,NaN,NaN,NaN,NaN
Prostaglandin E1,HMDB01442,1.445,2,m,NA,0.0341,-1,CCCCC[C@H](O)\C=C\[C@H]1[C@H](O)CC(=O)[C@@H]1CCCCCCC(O)=O,InChIKey=GMVPRGQOIOIIMI-DWKJAMRDSA-N,0.83,4.95,NaN,NaN,NaN,NaN,NaN,NaN,NaN,NaN,NaN,NaN,NaN,NaN
2-Octenoic acid,HMDB00392,1.447,2,m,NA,0.3071,-1,CCCCC\C=C/C(O)=O,InChIKey=CWMPPVPFLSZGCY-SREVYHEPSA-N,4.89,-3.2,NA,NA,NA,NA,NA,NA,NA,NA,NA,NA,NA,NA
D-Limonene,HMDB03375,1.455,1,qd,NA,0.0307,0,CC(=C)[C@H]1CCC(C)=CC1,InChIKey=XMGQYMWWDOXHJM-SNVBAGLBSA-N,14.58,-3,0.19,NaN,NaN,NaN,NaN,NaN,NaN,NaN,NaN,NaN,NaN,NaN
Stearic acid,HMDB00827,1.455,78,m,NA,1,-1,CCCCCCCCCCCCCCCCCC(O)=O,InChIKey=QIQXTHQIDYTFRH-UHFFFAOYSA-N,18.2,8.5,49.25475,1.5,NaN,6.88,NaN,NaN,NaN,NaN,NaN,NaN,NaN,NaN