Metabolite,HMDB Name,Shift (ppm),Hs,Type,J (Hz),Height,Physiological Charge,SMILES,InChlKey,pKa (Strongest Acidic),pKa (Strongest Basic),Blood,Urine,Feces,Saliva,Cerebrospinal Fluid (CSF),Amniotic Fluid,Aqueous Humour,Ascites Fluid,Breast Milk,Lymph,Sweat,Tears
2-Phenylaminoadenosine,HMDB01069,3.905,1,q,NA,0.0164,0,NC1=C2N=CN(C3OC(CO)C(O)C3O)C2=NC(NC2=CC=CC=C2)=N1,InChIKey=SCNILGOVBBRMBK-UHFFFAOYSA-N,0.9,7.43,NA,NA,NA,NA,NA,NA,NA,NA,NA,NA,NA,NA
5-Methoxytryptophan,HMDB02339,3.905,3,s,NA,1,0,COC1=CC2=C(NC=C2C[C@H](N)C(O)=O)C=C1,InChIKey=KVNPSKDDJARYKK-JTQLQIEISA-N,11.59,10,NA,NA,NA,NA,NA,NA,NA,NA,NA,NA,NA,NA
FADH,HMDB01197,3.905,1,dd,7.46 4.00,0.1144,-2,CC1=CC2=C(C=C1C)N(C[C@H](O)[C@H](O)[C@H](O)COP(O)(=O)OP(O)(=O)OC[C@H]1O[C@H]([C@H](O)[C@@H]1O)N1C=NC3=C1N=CN=C3N)C1=C(N2)C(=O)NC(=O)N1,InChIKey=YPZRHBJKEMOYQH-UYBVJOGSSA-N,3.63,-3.4,NA,NA,NA,NA,NA,NA,NA,NA,NA,NA,NA,NA
Glucosamine 6-phosphate,HMDB01254,3.905,9,t,9.88,0.6191,-1,N[C@H]1[C@@H](O)O[C@H](COP(O)(O)=O)[C@@H](O)[C@@H]1O,InChIKey=XHMJOUIAFHJHBW-UKFBFLRUSA-N,7.82,9.73,NA,NA,NA,NA,NA,NA,NA,NA,NA,NA,NA,NA
Hydroxycobalamin,HMDB02308,3.905,1,dd,NA,0.0049,2,[Co++].O.OC[C@H]1O[C@@]([H])([C@H](O)[C@]1([H])OP(=O)([O-])O[C@H](C)CNC(=O)CC[C@]1(C)[C@@H](CC(=O)N)[C@@]2([H])[N-]\C1=C(C)/C1=N/C(=C\C3=N\C(=C(C)/C4=N[C@]2(C)[C@@](C)(CC(=O)N)[C@@H]4CCC(=O)N)\[C@@](C)(CC(=O)N)[C@@H]3CCC(=O)N)/C(C)(C)[C@@H]1CCC(=O)N)N1C=NC2=C1C=C(C)C(C)=C2,InChIKey=DQOCFCZRZOAIBN-WZHZPDAFSA-L,2.45,-1.9,NA,NA,NA,NA,NA,NA,NA,NA,NA,NA,NA,NA
N-Acetyllactosamine,HMDB01542,3.905,1,m,NA,0.1688,0,CC(=O)N[C@H]1[C@H](O)O[C@H](CO)[C@@H](O[C@@H]2O[C@H](CO)[C@H](O)[C@H](O)[C@H]2O)[C@@H]1O,InChIKey=KFEUJDWYNGMDBV-LODBTCKLSA-N,4.82,-0.54,NA,NA,NA,NA,NA,NA,NA,NA,NA,NA,NA,NA
Salicin,HMDB03546,3.905,1,dd,12.05 2.15,0.0787,0,OC[C@H]1O[C@@H](OC2=C(CO)C=CC=C2)[C@H](O)[C@@H](O)[C@@H]1O,InChIKey=NGFMICBWJRZIBI-UJPOAAIJSA-N,14.58,-3,NA,NA,NA,NA,NA,NA,NA,NA,NA,NA,NA,NA
2-Methylbutyroylcarnitine,HMDB00378,3.905,1,dd,14.48 8.53,0.0306,0,CCC(C)C(=O)OC(CC([O-])=O)C[N+](C)(C)C,InChIKey=IHCPDBBYTYJYIL-UHFFFAOYSA-N,1.86,-1.3,NaN,NaN,NaN,NaN,NaN,NaN,NaN,NaN,NaN,NaN,NaN,NaN
3-Methoxy-4-Hydroxyphenylglycol sulfate,HMDB03332,3.905,3,s,NA,1,-1,COC1=C(O)C=CC(=C1)C(CO)OS(O)(=O)=O,InChIKey=SBKADJXSGGTEPN-UHFFFAOYSA-N,14.58,-3,NaN,NaN,NaN,NaN,NaN,NaN,NaN,NaN,NaN,NaN,NaN,NaN
5-Methoxytryptamine,HMDB04095,3.905,3,s,NA,1,1,COC1=CC2=C(NC=C2CCN)C=C1,InChIKey=JTEJPPKMYBDEMY-UHFFFAOYSA-N,1.86,-6.7,NaN,NaN,NaN,NaN,NaN,NaN,NaN,NaN,NaN,NaN,NaN,NaN
D-Tagatose,HMDB03418,3.905,1,d,2.81,0.8033,0,OC[C@@H](O)[C@H](O)[C@H](O)C(=O)CO,InChIKey=BJHIKXHVCXFQLS-PQLUHFTBSA-N,14.58,-3,NaN,NaN,NaN,NaN,NaN,NaN,NaN,NaN,NaN,NaN,NaN,NaN
Isoferulic acid,HMDB00955,3.905,1,s,NA,1,-1,COC1=C(O)C=C(\C=C\C(O)=O)C=C1,InChIKey=QURCVMIEKCOAJU-HWKANZROSA-N,3.24,-6.3,NaN,NaN,NaN,NaN,NaN,NaN,NaN,NaN,NaN,NaN,NaN,NaN
Melatonin,HMDB01389,3.905,3,s,NA,0.8683,0,COC1=CC2=C(NC=C2CCNC(C)=O)C=C1,InChIKey=DRLFMBDRBRZALE-UHFFFAOYSA-N,4.12,-7.2,NaN,NaN,NaN,NaN,NaN,NaN,NaN,NaN,NaN,NaN,NaN,NaN
Melibiose,HMDB00048,3.905,7,m,NA,0.2721,0,OC[C@H]1O[C@H](OC[C@H]2OC(O)[C@H](O)[C@@H](O)[C@@H]2O)[C@H](O)[C@@H](O)[C@H]1O,InChIKey=DLRVVLDZNNYCBX-ABXHMFFYSA-N,2.06,-0.1,NaN,NaN,NaN,NaN,NaN,NaN,NaN,NaN,NaN,NaN,NaN,NaN
Naproxen,HMDB01923,3.905,3,s,NA,0.5602,-1,COC1=CC2=C(C=C1)C=C(C=C2)[C@H](C)C(O)=O,InChIKey=CMWTZPSULFXXJA-VIFPVBQESA-N,0.87,-0.34,NaN,NaN,NaN,NaN,NaN,NaN,NaN,NaN,NaN,NaN,NaN,NaN
Naringin,HMDB02927,3.905,3,m,NA,0.0322,0,C[C@@H]1O[C@@H](O[C@@H]2[C@@H](O)[C@H](O)[C@@H](CO)O[C@H]2OC2=CC(O)=C3C(=O)C[C@H](OC3=C2)C2=CC=C(O)C=C2)[C@H](O)[C@H](O)[C@H]1O,InChIKey=DFPMSGMNTNDNHN-ZPHOTFPESA-N,3.04,-3.3,NaN,NaN,NaN,NaN,NaN,NaN,NaN,NaN,NaN,NaN,NaN,NaN
Raffinose,HMDB03213,3.905,2,m,NA,0.4367,0,OC[C@H]1O[C@@](CO)(OC2O[C@H](COC3O[C@H](CO)[C@H](O)[C@H](O)[C@H]3O)[C@@H](O)[C@H](O)[C@H]2O)[C@@H](O)[C@@H]1O,InChIKey=MUPFEKGTMRGPLJ-BQCSWRFHSA-N,14.58,-3,NaN,NaN,NaN,NaN,NaN,NaN,NaN,NaN,NaN,NaN,NaN,NaN
Sucrose,HMDB00258,3.905,1,dd,6.5,0.1336,0,OC[C@H]1O[C@@](CO)(O[C@H]2O[C@H](CO)[C@@H](O)[C@H](O)[C@H]2O)[C@@H](O)[C@@H]1O,InChIKey=CZMRCDWAGMRECN-UGDNZRGBSA-N,8.75,9.83,NaN,5.86275,NaN,NaN,NaN,NaN,NaN,NaN,NaN,NaN,NaN,NaN
Sucrose,HMDB00258,3.905,1,dd,3.66,0.1336,0,OC[C@H]1O[C@@](CO)(O[C@H]2O[C@H](CO)[C@@H](O)[C@H](O)[C@H]2O)[C@@H](O)[C@@H]1O,InChIKey=CZMRCDWAGMRECN-UGDNZRGBSA-N,8.75,9.83,NaN,5.86275,NaN,NaN,NaN,NaN,NaN,NaN,NaN,NaN,NaN,NaN
Ribothymidine,HMDB00884,3.911,1,dd,NA,0.1452,0,CC1=CN([C@@H]2O[C@H](CO)[C@@H](O)[C@H]2O)C(=O)NC1=O,InChIKey=DWRXFEITVBNRMK-JXOAFFINSA-N,0.83,9.06,NaN,NaN,NaN,NaN,NaN,NaN,NaN,NaN,NaN,NaN,NaN,NaN
Biopterin,HMDB00468,3.915,1,sxt,NA,0.1494,0,C[C@H](O)[C@H](O)C1=NC2=C(NC(N)=NC2=O)N=C1,InChIKey=LHQIJBMDNUYRAM-DZSWIPIPSA-N,-1.9,3.8,0.017,NaN,NaN,NaN,NaN,NaN,NaN,NaN,NaN,NaN,NaN,NaN
5-Methoxydimethyltryptamine,HMDB02004,3.915,3,s,NA,0.5417,1,COC1=CC2=C(NC=C2CCN(C)C)C=C1,InChIKey=ZSTKHSQDNIGFLM-UHFFFAOYSA-N,0.83,4.99,0.21,0.02,NaN,NaN,NaN,NaN,NaN,NaN,NaN,NaN,NaN,NaN
N-Acetylneuraminic acid,HMDB00230,3.915,1,q,9.98,0.0805,-1,CC(=O)N[C@@H]1[C@@H](O)C[C@](O)(O[C@H]1[C@H](O)[C@H](O)CO)C(O)=O,InChIKey=SQVRNKJHWKZAKO-PFQGKNLYSA-N,2.89,6.96,0.57,8.6,NaN,NaN,11.9,NaN,NaN,NaN,NaN,NaN,NaN,NaN
L-Arabinose,HMDB00646,3.915,3,m,NA,0.1804,0,O[C@H]1COC(O)[C@H](O)[C@H]1O,InChIKey=SRBFZHDQGSBBOR-HWQSCIPKSA-N,13.62,-3,2.5,8.75,NaN,NaN,14.15,NaN,NaN,NaN,NaN,NaN,NaN,NaN
Vanillic acid,HMDB00484,3.915,7,s,NA,1,-1,COC1=CC(=CC=C1O)C(O)=O,InChIKey=WKOLLVMJNQIZCI-UHFFFAOYSA-N,4.62,-1.4,4.8,11.2,NaN,NaN,NaN,NaN,NaN,NaN,NaN,NaN,NaN,NaN
N-Stearoylsphingosine,HMDB00829,3.915,0,m,NA,6.00E-04,0,CCCCCCCCCCCCCCCCCC(=O)NC(CO)C(O)\C=C\CCCCCCCCCCCCC,InChIKey=VODZWWMEJITOND-OWWNRXNESA-N,1.23,-3,NA,NA,NA,NA,NA,NA,NA,NA,NA,NA,NA,NA
1-Methyladenine,HMDB11599,3.915,3,s,NA,1,0,CN1C=NC2=NC=NC2=C1N,InChIKey=HPZMWTNATZPBIH-UHFFFAOYSA-N,1.86,-3,NaN,0.1,NaN,NaN,NaN,NaN,NaN,NaN,NaN,NaN,NaN,NaN
D-Maltose,HMDB00163,3.915,1,dd,12.27 1.92,0.3379,0,OC[C@H]1O[C@H](O[C@H]2[C@H](O)[C@H](O)[C@@H](O)O[C@@H]2CO)[C@H](O)[C@@H](O)[C@@H]1O,InChIKey=GUBGYTABKSRVRQ-DKBJLJRDSA-N,7.93,9.34,NaN,NaN,NaN,NaN,NaN,NaN,NaN,NaN,NaN,NaN,NaN,NaN
Glycerophosphocholine,HMDB00086,3.915,3,m,NA,0.0092,0,C[N+](C)(C)CCOP([O-])(=O)OC[C@@H](O)CO,InChIKey=SUHOQUVVVLNYQR-QMMMGPOBSA-N,3.55,-3,NaN,NaN,NaN,9.82,3.9,NaN,NaN,NaN,NaN,NaN,NaN,NaN
Guaiacol,HMDB01398,3.915,3,s,NA,1,0,COC1=CC=CC=C1O,InChIKey=LHGVFZTZFXWLCP-UHFFFAOYSA-N,3.93,-3,NaN,NaN,NaN,NaN,NaN,NaN,NaN,NaN,NaN,NaN,NaN,NaN
Inosine,HMDB00195,3.917,1,dd,12.77 3.00,0.1844,-1,OC[C@H]1O[C@H]([C@H](O)[C@@H]1O)N1C=NC2=C1N=CNC2=O,InChIKey=UGQMRVRMYYASKQ-KQYNXXCUSA-N,1.73,9.73,1.3875,0.67,NaN,0.37,0.64,NaN,NaN,NaN,NaN,NaN,NaN,NaN
D-Fructose,HMDB00660,3.918,9,dd,9.998 3.461,NA,0,OC[C@H]1O[C@](O)(CO)[C@@H](O)[C@@H]1O,InChIKey=RFSUNEUAIZKAJO-ARQDHWQXSA-N,3.61,-7,31,NaN,NaN,NaN,200,NaN,NaN,NaN,NaN,NaN,NaN,NaN
Uridine,HMDB00296,3.922,1,dd,NA,0.2825,0,OC[C@H]1O[C@H]([C@H](O)[C@@H]1O)N1C=CC(=O)NC1=O,InChIKey=DRTQHJPVMGBUCF-XVFCMESISA-N,3.77,-0.35,3.11,0.602,NaN,NaN,NaN,NaN,NaN,NaN,NaN,NaN,NaN,NaN
Iodotyrosine,HMDB00021,3.925,1,dd,7.80 5.21,0.5039,0,N[C@@H](CC1=CC=C(O)C(I)=C1)C(O)=O,InChIKey=UQTZMGFTRHFAAM-ZETCQYMHSA-N,18.27,-1.4,0.00069,NaN,NaN,NaN,NaN,NaN,NaN,NaN,NaN,NaN,NaN,NaN
1-Methyladenosine,HMDB03331,3.925,1,t,NA,0.1304,0,CN1C=NC2=C(N=CN2[C@@H]2O[C@H](CO)[C@@H](O)[C@H]2O)C1=N,InChIKey=GFYLSDSUCHVORB-IOSLPCCCSA-N,14.58,-3,0.1,8.716666667,NaN,NaN,NaN,NaN,NaN,NaN,NaN,NaN,NaN,NaN
SM(d18:1/18:0),HMDB01348,3.925,1,m,NA,0.007,0,CCCCCCCCCCCCCCCCCC(=O)N[C@@]([H])(COP(O)(=O)OCC[N+](C)(C)C)[C@]([H])(O)\C=C\CCCCCCCCCCCCC,InChIKey=LKQLRGMMMAHREN-YJFXYUILSA-O,1.86,-6.7,157.1,NaN,NaN,0.121,NaN,NaN,NaN,NaN,NaN,NaN,NaN,NaN
7-Methylxanthine,HMDB01991,3.925,3,d,0.61,0.2192,0,CN1C=NC2=C1C(=O)NC(=O)N2,InChIKey=PFWLFWPASULGAN-UHFFFAOYSA-N,11.79,-1.9,NaN,10,NaN,NaN,NaN,NaN,NaN,NaN,NaN,NaN,NaN,NaN
D-Xylose,HMDB00098,3.925,1,dd,11.54,0.4332,0,O[C@@H]1COC(O)[C@H](O)[C@H]1O,InChIKey=SRBFZHDQGSBBOR-IOVATXLUSA-N,14.58,-3,NaN,5.26,NaN,NaN,NaN,NaN,NaN,NaN,NaN,NaN,NaN,NaN
D-Xylose,HMDB00098,3.925,1,dd,5.47,0.4332,0,O[C@@H]1COC(O)[C@H](O)[C@H]1O,InChIKey=SRBFZHDQGSBBOR-IOVATXLUSA-N,14.58,-3,NaN,5.26,NaN,NaN,NaN,NaN,NaN,NaN,NaN,NaN,NaN,NaN
Galacturonic acid,HMDB02545,3.925,7,dd,10.29 3.41,0.3047,-1,O[C@@H](C=O)[C@@H](O)[C@@H](O)[C@H](O)C(O)=O,InChIKey=IAJILQKETJEXLJ-RSJOWCBRSA-N,14.58,-3,NaN,NaN,NaN,NaN,NaN,NaN,NaN,NaN,NaN,NaN,NaN,NaN
Glucose 1-phosphate,HMDB01586,3.925,13,m,NA,0.491,-2,OC[C@H]1OC(OP(O)(O)=O)[C@H](O)[C@@H](O)[C@@H]1O,InChIKey=HXXFSFRBOHSIMQ-GASJEMHNSA-N,4.95,-4,NaN,NaN,NaN,NaN,NaN,NaN,NaN,NaN,NaN,NaN,NaN,NaN
N-Acetylgalactosamine,HMDB00212,3.925,1,d,NA,0.0573,0,CC(=O)N[C@H]1[C@@H](O)O[C@H](CO)[C@H](O)[C@@H]1O,InChIKey=OVRNDRQMDRJTHS-CBQIKETKSA-N,15.7,-3.3,NaN,NaN,NaN,NaN,NaN,NaN,NaN,NaN,NaN,NaN,NaN,NaN
Perillyl alcohol,HMDB03634,3.925,2,m,NA,0.1641,0,CC(=C)C1CCC(CO)=CC1,InChIKey=NDTYTMIUWGWIMO-UHFFFAOYSA-N,14.58,-3,NaN,NaN,NaN,NaN,NaN,NaN,NaN,NaN,NaN,NaN,NaN,NaN
Uridine diphosphategalactose,HMDB00302,3.925,1,dd,10.26 3.22,0.2995,-2,OC[C@H]1O[C@H](O[P@@](O)(=O)O[P@@](O)(=O)OC[C@H]2O[C@H]([C@H](O)[C@@H]2O)N2C=CC(=O)NC2=O)[C@H](O)[C@@H](O)[C@H]1O,InChIKey=HSCJRCZFDFQWRP-ABVWGUQPSA-N,4.48,-2.8,NaN,NaN,NaN,NaN,NaN,NaN,NaN,NaN,NaN,NaN,NaN,NaN
4-Aminohippuric acid,HMDB01867,3.931,2,d,5.82,1,-1,NC1=CC=C(C=C1)C(=O)NCC(O)=O,InChIKey=HSMNQINEKMPTIC-UHFFFAOYSA-N,1.16,4.95,18,0.3,NaN,NaN,NaN,NaN,NaN,NaN,NaN,NaN,NaN,NaN
Uridine diphosphate-N-acetylglucosamine,HMDB00290,3.931,1,m,NA,0.0457,-2,CC(=O)N[C@@H]1[C@@H](O)[C@H](O)[C@@H](CO)O[C@@H]1OP(O)(=O)OP(O)(=O)OC[C@H]1O[C@H]([C@H](O)[C@@H]1O)N1C=CC(=O)NC1=O,InChIKey=LFTYTUAZOPRMMI-CFRASDGPSA-N,4.67,-0.88,NaN,NaN,NaN,NaN,NaN,NaN,NaN,NaN,NaN,NaN,NaN,NaN
L-Dopa,HMDB00181,3.935,2,dd,7.78 5.08,0.4387,0,N[C@@H](CC1=CC(O)=C(O)C=C1)C(O)=O,InChIKey=WTDRDQBEARUVNC-LURJTMIESA-N,0.76,-3.6,0.00723,0.0136,NaN,NaN,NaN,NaN,NaN,NaN,NaN,NaN,NaN,NaN
Cytidine,HMDB00089,3.935,10,m,NA,0.4188,0,NC1=NC(=O)N(C=C1)[C@@H]1O[C@H](CO)[C@@H](O)[C@H]1O,InChIKey=UHDGCWIWMRVCDJ-XVFCMESISA-N,12.18,-5.4,0.175,0.393333333,NaN,0.132,NaN,NaN,NaN,NaN,NaN,NaN,NaN,NaN
Prostaglandin E2,HMDB01220,3.935,1,m,NA,0.0068,-1,CCCCC[C@H](O)\C=C\[C@H]1[C@H](O)CC(=O)[C@@H]1C\C=C/CCCC(O)=O,InChIKey=XEYBRNLFEZDVAW-ARSRFYASSA-N,3.84,-3.2,3.7,NaN,NaN,NaN,NA,NaN,NaN,NaN,NaN,NaN,NaN,NaN
Fructose 6-phosphate,HMDB00124,3.935,44,m,NA,0.3027,-2,OCC(=O)[C@@H](O)[C@H](O)[C@H](O)COP(O)(O)=O,InChIKey=GSXOAOHZAIYLCY-HSUXUTPPSA-N,3.78,-4,10.2,NaN,NaN,NaN,NaN,NaN,NaN,NaN,NaN,NaN,NaN,NaN
Glucose 6-phosphate,HMDB01401,3.935,1,ddd,11.91 5.07 2.09,0.1337,-2,OC1O[C@H](COP(O)(O)=O)[C@@H](O)[C@H](O)[C@H]1O,InChIKey=NBSCHQHZLSJFNQ-GASJEMHNSA-N,1.86,4.95,29.1,NaN,NaN,NaN,NaN,NaN,NaN,NaN,NaN,NaN,NaN,NaN
Creatine,HMDB00064,3.935,32,s,NA,0.5503,0,CN(CC(O)=O)C(N)=N,InChIKey=CVSVTCORWBXHQV-UHFFFAOYSA-N,11.31,9.66,36.7,75.33333333,NaN,30.12,44,NaN,NaN,NaN,NaN,NaN,NaN,NaN
D-Galactose,HMDB00143,3.935,1,d,3.07,0.5421,0,OC[C@H]1O[C@H](O)[C@H](O)[C@@H](O)[C@H]1O,InChIKey=WQZGKKKJIJFFOK-PHYPRBDBSA-N,1.87,10,88.3,4.4,NaN,83.46,166,NaN,NaN,NaN,NaN,NaN,NaN,NaN
Anatabine,HMDB04476,3.935,1,t,7.26,0.1053,1,C1N[C@@H](CC=C1)C1=CN=CC=C1,InChIKey=SOPPBXUYQGUQHE-JTQLQIEISA-N,1.86,-6.7,NA,NA,NA,NA,NA,NA,NA,NA,NA,NA,NA,NA
N-Acetyllactosamine,HMDB01542,3.935,1,m,NA,0.1604,0,CC(=O)N[C@H]1[C@H](O)O[C@H](CO)[C@@H](O[C@@H]2O[C@H](CO)[C@H](O)[C@H](O)[C@H]2O)[C@@H]1O,InChIKey=KFEUJDWYNGMDBV-LODBTCKLSA-N,4.82,-0.54,NA,NA,NA,NA,NA,NA,NA,NA,NA,NA,NA,NA
Vinylacetylglycine,HMDB00894,3.935,2,d,5.67,1,-1,OC(=O)CNC(=O)CC=C,InChIKey=UKISAGFGRDHYFO-UHFFFAOYSA-N,1.86,-3,NA,NA,NA,NA,NA,NA,NA,NA,NA,NA,NA,NA
2.3-Diaminopropionic acid,HMDB02006,3.935,3,dd,7.43 6.47,0.3851,0,NC[C@H](N)C(O)=O,InChIKey=PECYZEOJVXMISF-REOHCLBHSA-N,0.83,4.99,NaN,NaN,NaN,NaN,NaN,NaN,NaN,NaN,NaN,NaN,NaN,NaN
3.4-Dihydroxyhydrocinnamic acid,HMDB00423,3.935,2,dd,7.86 5.04,0.3544,-1,OC(=O)CCC1=CC=C(O)C(O)=C1,InChIKey=DZAUWHJDUNRCTF-UHFFFAOYSA-N,8.88,5.16,NaN,0.27,NaN,NaN,NaN,NaN,NaN,NaN,NaN,NaN,NaN,NaN
DL-Dopa,HMDB00609,3.935,1,dd,7.84 5.03,0.471,0,NC(CC1=CC=C(O)C(O)=C1)C(O)=O,InChIKey=WTDRDQBEARUVNC-UHFFFAOYSA-N,4.26,10.29,NaN,NaN,NaN,NaN,NaN,NaN,NaN,NaN,NaN,NaN,NaN,NaN
Glucaric acid,HMDB00663,3.935,1,t,4.59,0.4303,-2,O[C@@H]([C@H](O)[C@@H](O)C(O)=O)[C@H](O)C(O)=O,InChIKey=DSLZVSRJTYRBFB-LLEIAEIESA-N,4.06,-2.1,NaN,NaN,NaN,NaN,NaN,NaN,NaN,NaN,NaN,NaN,NaN,NaN
Metoprolol,HMDB01932,3.935,1,m,9.56 6.14 2.09,0.0226,1,COCCC1=CC=C(OCC(O)CNC(C)C)C=C1,InChIKey=IUBSYMUCCVWXPE-UHFFFAOYSA-N,0.83,7.85,NaN,NaN,NaN,NaN,NaN,NaN,NaN,NaN,NaN,NaN,NaN,NaN
L-Tyrosine,HMDB00158,3.936,0,dd,NA,0.0106,0,N[C@@H](CC1=CC=C(O)C=C1)C(O)=O,InChIKey=OUYCCCASQSFEME-QMMMGPOBSA-N,4.22,-3.3,99.625,10.466,NaN,NA,9.125,NaN,NaN,NaN,NaN,NaN,NaN,NaN
Rhamnose,HMDB00849,3.936,2,m,NA,0.3241,0,C[C@@H]1OC(O)[C@H](O)[C@H](O)[C@H]1O,InChIKey=SHZGCJCMOBCMKK-JFNONXLTSA-N,0.89,-1.5,NaN,NaN,NaN,NaN,NaN,NaN,NaN,NaN,NaN,NaN,NaN,NaN
D-Mannose,HMDB00169,3.938,17,m,NA,NA,0,OC[C@H]1OC(O)[C@@H](O)[C@@H](O)[C@@H]1O,InChIKey=WQZGKKKJIJFFOK-QTVWNMPRSA-N,3.66,9.48,39,1.25,NaN,NaN,44,NaN,NaN,NaN,NaN,NaN,NaN,NaN
1-Methyladenosine,HMDB03331,3.945,0,t,3.33,0.0674,0,CN1C=NC2=C(N=CN2[C@@H]2O[C@H](CO)[C@@H](O)[C@H]2O)C1=N,InChIKey=GFYLSDSUCHVORB-IOSLPCCCSA-N,14.58,-3,0.1,8.716666667,NaN,NaN,NaN,NaN,NaN,NaN,NaN,NaN,NaN,NaN
L-Arabitol,HMDB01851,3.945,2,m,NA,0.2806,0,OC[C@H](O)C(O)[C@@H](O)CO,InChIKey=HEBKCHPVOIAQTA-IMJSIDKUSA-N,-2,-1.6,2,19.28,NaN,NaN,28.9,NaN,NaN,NaN,NaN,NaN,NaN,NaN
3-Methylhistidine,HMDB00479,3.945,1,dd,7.60 5.67,0.1004,0,CN1C=NC=C1C[C@H](N)C(O)=O,InChIKey=JDHILDINMRGULE-LURJTMIESA-N,1.82,5.16,2.7,5.26,NaN,27.68,NaN,NaN,NaN,NaN,NaN,NaN,NaN,NaN
D-Ribose 5-phosphate,HMDB01548,3.945,10,m,NA,0.2677,-2,OC1O[C@H](COP(O)(O)=O)[C@@H](O)[C@H]1O,InChIKey=KTVPXOYAKDPRHY-SOOFDHNKSA-N,4.64,-6,13.2,NaN,NaN,NaN,NaN,NaN,NaN,NaN,NaN,NaN,NaN,NaN
PC(16:0/16:0),HMDB00564,3.945,2,m,NA,0.0255,0,CCCCCCCCCCCCCCCC(=O)OC[C@H](COP([O-])(=O)OCC[N+](C)(C)C)OC(=O)CCCCCCCCCCCCCCC,InChIKey=KILNVBDSWZSGLL-KXQOOQHDSA-N,4.6,-2.9,584.557,NaN,NaN,NaN,NaN,NaN,NaN,NaN,NaN,NaN,NaN,NaN
Tryptophanol,HMDB03447,3.945,1,dt,NA,0.0677,0,OCCC1=CNC2=CC=CC=C12,InChIKey=MBBOMCVGYCRMEA-UHFFFAOYSA-N,14.58,-3,NA,NA,NA,NA,NA,NA,NA,NA,NA,NA,NA,NA
5-Methylcytidine,HMDB00982,3.945,1,dd,12.79 2.94,0.1461,0,CC1=CN([C@@H]2O[C@H](CO)[C@@H](O)[C@H]2O)C(=O)N=C1N,InChIKey=ZAYHVCMSTBRABG-JXOAFFINSA-N,4.13,5.53,NaN,NaN,NaN,NaN,NaN,NaN,NaN,NaN,NaN,NaN,NaN,NaN
D-Maltose,HMDB00163,3.945,1,d,2.38,0.3379,0,OC[C@H]1O[C@H](O[C@H]2[C@H](O)[C@H](O)[C@@H](O)O[C@@H]2CO)[C@H](O)[C@@H](O)[C@@H]1O,InChIKey=GUBGYTABKSRVRQ-DKBJLJRDSA-N,7.93,9.34,NaN,NaN,NaN,NaN,NaN,NaN,NaN,NaN,NaN,NaN,NaN,NaN
Ergocalciferol,HMDB00900,3.945,1,m,NA,0.0046,0,CC(C)[C@@H](C)\C=C\[C@@H](C)[C@H]1CC[C@@]2([H])\C(CCC[C@]12C)=C\C=C1\C[C@@H](O)CCC1=C,InChIKey=MECHNRXZTMCUDQ-RKHKHRCZSA-N,3.25,-6.3,NaN,NaN,NaN,0.008,NaN,NaN,NaN,NaN,NaN,NaN,NaN,NaN
Maltotetraose,HMDB01296,3.945,6,m,NA,0.6121,0,OC[C@H]1O[C@H](O[C@H]2[C@H](O)[C@@H](O)[C@@H](O[C@H]3[C@H](O)[C@@H](O)[C@@H](O[C@H]4[C@H](O)[C@@H](O)C(O)O[C@@H]4CO)O[C@@H]3CO)O[C@@H]2CO)[C@H](O)[C@@H](O)[C@@H]1O,InChIKey=LUEWUZLMQUOBSB-AYQJAVFRSA-N,3.23,5.58,NaN,NaN,NaN,NaN,NaN,NaN,NaN,NaN,NaN,NaN,NaN,NaN
N-Acetylgalactosamine,HMDB00212,3.945,1,t,2.29,0.1016,0,CC(=O)N[C@H]1[C@@H](O)O[C@H](CO)[C@H](O)[C@@H]1O,InChIKey=OVRNDRQMDRJTHS-CBQIKETKSA-N,15.7,-3.3,NaN,NaN,NaN,NaN,NaN,NaN,NaN,NaN,NaN,NaN,NaN,NaN
N-Acetylserine,HMDB02931,3.945,1,dq,NA,0.1268,-1,CC(=O)N[C@@H](CO)C(O)=O,InChIKey=JJIHLJJYMXLCOY-BYPYZUCNSA-N,11.25,-0.88,NaN,NaN,NaN,NaN,NaN,NaN,NaN,NaN,NaN,NaN,NaN,NaN
Orotidine,HMDB00788,3.945,1,td,NA,0.1074,-1,OC[C@H]1O[C@H]([C@H](O)[C@@H]1O)N1C(=O)NC(=O)C=C1C(O)=O,InChIKey=FKCRAVPPBFWEJD-XVFCMESISA-N,12.5,-3.6,NaN,NaN,NaN,NaN,NaN,NaN,NaN,NaN,NaN,NaN,NaN,NaN
Phosphocreatine,HMDB01511,3.945,7,s,NA,0.577,-2,CN(CC(O)=O)C(=N)NP(O)(O)=O,InChIKey=DRBBFCLWYRJSJZ-UHFFFAOYSA-N,-3.2,-5.9,NaN,NaN,NaN,NaN,NaN,NaN,NaN,NaN,NaN,NaN,NaN,NaN
Sulfolithocholic acid,HMDB00907,3.945,1,m,NA,0.0458,-2,[H][C@@]12CC[C@H]([C@H](C)CCC(O)=O)[C@@]1(C)CC[C@@]1([H])[C@@]2([H])CCC2C[C@@H](CC[C@]12C)OS(O)(=O)=O,InChIKey=AXDXVEYHEODSPN-YPLGJCPNSA-N,0.45,9.33,NaN,NaN,NaN,NaN,NaN,NaN,NaN,NaN,NaN,NaN,NaN,NaN
Adenosine,HMDB00050,3.952,1,dd,12.82 2.79,0.1945,0,NC1=NC=NC2=C1N=CN2[C@@H]1O[C@H](CO)[C@@H](O)[C@H]1O,InChIKey=OIRDTQYFTABQOQ-KQYNXXCUSA-N,1.86,-6.7,1.3435,0.335,NaN,0.24,0,NaN,NaN,NaN,NaN,NaN,NaN,NaN
D-Serine,HMDB03406,3.952,1,dd,12.27 5.71,1,0,N[C@H](CO)C(O)=O,InChIKey=MTCFGRXMJLQNBG-UWTATZPHSA-N,14.58,-3,2.28,0.0021,NaN,NaN,52,NaN,NaN,NaN,NaN,NaN,NaN,NaN
Glycolic acid,HMDB00115,3.955,1,s,NA,1,-1,OCC(O)=O,InChIKey=AEMRFAOFKBGASW-UHFFFAOYSA-N,16.45,-1.1,7.85,43,NaN,21.65,NaN,NaN,NaN,NaN,NaN,NaN,NaN,NaN
2-Furoylglycine,HMDB00439,3.955,2,d,5.93,0.5926,-1,OC(=O)CNC(=O)C1=CC=CO1,InChIKey=KSPQDMRTZZYQLM-UHFFFAOYSA-N,18.3,-3.7,NaN,9.95,NaN,NaN,NaN,NaN,NaN,NaN,NaN,NaN,NaN,NaN
Alpha-Lactose,HMDB00186,3.955,3,m,NA,0.5216,0,OC[C@H]1O[C@@H](O[C@H]2[C@H](O)[C@@H](O)[C@@H](O)O[C@@H]2CO)[C@H](O)[C@@H](O)[C@H]1O,InChIKey=GUBGYTABKSRVRQ-XLOQQCSPSA-N,1.87,10,NaN,1.45,NaN,NaN,NaN,NaN,NaN,NaN,NaN,NaN,NaN,NaN
Galactaric acid,HMDB00639,3.955,3,s,NA,1,-2,O[C@@H]([C@@H](O)[C@H](O)C(O)=O)[C@@H](O)C(O)=O,InChIKey=DSLZVSRJTYRBFB-DUHBMQHGSA-N,14.58,-3,NaN,NaN,NaN,NaN,NaN,NaN,NaN,NaN,NaN,NaN,NaN,NaN
Glycylproline,HMDB00721,3.955,1,s,NA,0.3378,0,NCC(=O)N1CCCC1C(O)=O,InChIKey=KZNQNBZMBZJQJO-UHFFFAOYSA-N,2.78,8.78,NaN,0.4,NaN,NaN,NaN,NaN,NaN,NaN,NaN,NaN,NaN,NaN
N-Butyrylglycine,HMDB00808,3.955,1,d,5.72,0.8801,-1,CCCC(=O)NCC(O)=O,InChIKey=WPSSBBPLVMTKRN-UHFFFAOYSA-N,1.23,4.77,NaN,NaN,NaN,NaN,NaN,NaN,NaN,NaN,NaN,NaN,NaN,NaN
Dihydrobiopterin,HMDB00038,3.965,2,s,NA,0.5545,0,CC(O)C(O)C1=NC2=C(NC1)N=C(N)NC2=O,InChIKey=FEMXZDUTFRTWPE-UHFFFAOYSA-N,11.25,10.31,0.006,NaN,NaN,NaN,4.00E-04,NaN,NaN,NaN,NaN,NaN,NaN,NaN
Vitamin D3,HMDB00876,3.965,1,m,NA,0.021,0,CC(C)CCC[C@@H](C)[C@H]1CCC2\C(CCC[C@]12C)=C\C=C1\C[C@@H](O)CCC1=C,InChIKey=QYSXJUFSXHHAJI-QWSSABAFSA-N,1.1,-3.6,0.03705,NaN,NaN,0.006,NaN,NaN,NaN,NaN,NaN,NaN,NaN,NaN
3-Methoxytyrosine,HMDB01434,3.965,11,dd,7.78 5.13,0.0827,0,COC1=CC(CC(N)C(O)=O)=CC=C1O,InChIKey=PFDUUKDQEHURQC-UHFFFAOYSA-N,1.83,-3.6,0.089,0.06,NaN,NaN,NaN,NaN,NaN,NaN,NaN,NaN,NaN,NaN
L-Cystathionine,HMDB00099,3.965,1,dt,7.11 4.41,0.4849,0,N[C@@H](CCSC[C@H](N)C(O)=O)C(O)=O,InChIKey=ILRYLPWNYFXEMH-WHFBIAKZSA-N,14.58,-3,0.2275,1.69,NaN,NaN,NaN,NaN,NaN,NaN,NaN,NaN,NaN,NaN
3-Nitrotyrosine,HMDB01904,3.965,1,dd,7.71 5.38,0.409,-1,N[C@@H](CC1=CC(=C(O)C=C1)[N+]([O-])=O)C(O)=O,InChIKey=FBTSQILOGYXGMD-LURJTMIESA-N,3.73,-1.4,0.85,NaN,NaN,NaN,3.36,NaN,NaN,NaN,NaN,NaN,NaN,NaN
L-Arabinose,HMDB00646,3.965,2,m,NA,0.1703,0,O[C@H]1COC(O)[C@H](O)[C@H]1O,InChIKey=SRBFZHDQGSBBOR-HWQSCIPKSA-N,13.62,-3,2.5,8.75,NaN,NaN,14.15,NaN,NaN,NaN,NaN,NaN,NaN,NaN
Allocystathionine,HMDB00455,3.965,1,dt,7.11 4.37,0.5785,0,N[C@@H](CCSCC(N)C(O)=O)C(O)=O,InChIKey=ILRYLPWNYFXEMH-ROLXFIACSA-N,11.7,-3,NA,NA,NA,NA,NA,NA,NA,NA,NA,NA,NA,NA
Cellobiose,HMDB00055,3.965,5,m,NA,0.2011,0,OC[C@H]1O[C@@H](O[C@H]2[C@H](O)[C@@H](O)[C@H](O)O[C@@H]2CO)[C@H](O)[C@@H](O)[C@@H]1O,InChIKey=GUBGYTABKSRVRQ-QRZGKKJRSA-N,11.7,1.83,NA,NA,NA,NA,NA,NA,NA,NA,NA,NA,NA,NA
N-Acetyllactosamine,HMDB01542,3.965,2,m,NA,0.056,0,CC(=O)N[C@H]1[C@H](O)O[C@H](CO)[C@@H](O[C@@H]2O[C@H](CO)[C@H](O)[C@H](O)[C@H]2O)[C@@H]1O,InChIKey=KFEUJDWYNGMDBV-LODBTCKLSA-N,4.82,-0.54,NA,NA,NA,NA,NA,NA,NA,NA,NA,NA,NA,NA
N-Stearoylsphingosine,HMDB00829,3.965,0,m,NA,4.00E-04,0,CCCCCCCCCCCCCCCCCC(=O)NC(CO)C(O)\C=C\CCCCCCCCCCCCC,InChIKey=VODZWWMEJITOND-OWWNRXNESA-N,1.23,-3,NA,NA,NA,NA,NA,NA,NA,NA,NA,NA,NA,NA
3-Hydroxysebacic acid,HMDB00350,3.965,1,m,NA,0.01,-2,OC(CCCCCCC(O)=O)CC(O)=O,InChIKey=OQYZCCKCJQWHIE-UHFFFAOYSA-N,19.09,-4.9,NaN,NaN,NaN,NaN,NaN,NaN,NaN,NaN,NaN,NaN,NaN,NaN
3-Hydroxytetradecanedioic acid,HMDB00394,3.965,1,m,NA,0.0072,-2,OC(CCCCCCCCCCC(O)=O)CC(O)=O,InChIKey=CEDZIURHISELSQ-UHFFFAOYSA-N,17.39,-1.6,NaN,NaN,NaN,NaN,NaN,NaN,NaN,NaN,NaN,NaN,NaN,NaN
Galactonic acid,HMDB00565,3.965,2,m,NA,0.364,-1,OC[C@@H](O)[C@H](O)[C@H](O)[C@@H](O)C(O)=O,InChIKey=RGHNJXZEOKUKBD-MGCNEYSASA-N,3.77,-2.6,NaN,NaN,NaN,NaN,NaN,NaN,NaN,NaN,NaN,NaN,NaN,NaN