Metabolite,HMDB Name,Shift (ppm),Hs,Type,J (Hz),Height,Physiological Charge,SMILES,InChlKey,pKa (Strongest Acidic),pKa (Strongest Basic),Blood,Urine,Feces,Saliva,Cerebrospinal Fluid (CSF),Amniotic Fluid,Aqueous Humour,Ascites Fluid,Breast Milk,Lymph,Sweat,Tears
Iodotyrosine,HMDB00021,7.705,1,d,2.04,0.8551,0,N[C@@H](CC1=CC=C(O)C(I)=C1)C(O)=O,InChIKey=UQTZMGFTRHFAAM-ZETCQYMHSA-N,18.27,-1.4,0.00069,NaN,NaN,NaN,NaN,NaN,NaN,NaN,NaN,NaN,NaN,NaN
2-Aminobenzoic acid,HMDB01123,7.705,1,dd,NA,0.5424,-1,NC1=CC=CC=C1C(O)=O,InChIKey=RWZYAGGXGHYGMB-UHFFFAOYSA-N,0.5,9.53,0.0155,0.31,NaN,NaN,0.001,NaN,NaN,NaN,NaN,NaN,NaN,NaN
1-Methylhistamine,HMDB00898,7.715,1,br. s.,NA,0.0858,1,CN1C=NC(CCN)=C1,InChIKey=FHQDWPCFSJMNCT-UHFFFAOYSA-N,1.78,-1.2,0.00034,0.097666667,NaN,0.0117,0.002,NaN,NaN,NaN,NaN,NaN,NaN,NaN
2-Furoylglycine,HMDB00439,7.715,1,d,0.99,0.3561,-1,OC(=O)CNC(=O)C1=CC=CO1,InChIKey=KSPQDMRTZZYQLM-UHFFFAOYSA-N,18.3,-3.7,NaN,9.95,NaN,NaN,NaN,NaN,NaN,NaN,NaN,NaN,NaN,NaN
Indole,HMDB00738,7.715,1,d,7.89,0.2482,0,N1C=CC2=C1C=CC=C2,InChIKey=SIKJAQJRHWYJAI-UHFFFAOYSA-N,19.78,12.39,NaN,NaN,NaN,NaN,NaN,NaN,NaN,NaN,NaN,NaN,NaN,NaN
Naproxen,HMDB01923,7.715,0,s,NA,NA,-1,COC1=CC2=C(C=C1)C=C(C=C2)[C@H](C)C(O)=O,InChIKey=CMWTZPSULFXXJA-VIFPVBQESA-N,0.87,-0.34,NaN,NaN,NaN,NaN,NaN,NaN,NaN,NaN,NaN,NaN,NaN,NaN
Tryptamine,HMDB00303,7.715,1,d,7.94,0.3778,1,NCCC1=CNC2=CC=CC=C12,InChIKey=APJYDQYYACXCRM-UHFFFAOYSA-N,4.39,-0.16,NaN,0.026,NaN,NaN,NaN,NaN,NaN,NaN,NaN,NaN,NaN,NaN
Flavone,HMDB03075,7.725,1,ddd,8.50 7.01 1.71,0.2706,0,O=C1C=C(OC2=CC=CC=C12)C1=CC=CC=C1,InChIKey=VHBFFQKBGNRLFZ-UHFFFAOYSA-N,1.86,-0.52,NA,NA,NA,NA,NA,NA,NA,NA,NA,NA,NA,NA
3-Indolepropionic acid,HMDB02302,7.725,12,d,7.64,0.5921,-1,OC(=O)CCC1=CNC2=CC=CC=C12,InChIKey=GOLXRNDWAUTYKT-UHFFFAOYSA-N,2.45,-2.9,NaN,NaN,NaN,NaN,NaN,NaN,NaN,NaN,NaN,NaN,NaN,NaN
Indoxyl sulfate,HMDB00682,7.727,1,d,7.96,0.265,-1,OS(=O)(=O)OC1=CNC2=CC=CC=C12,InChIKey=BXFFHSIDQOFMLE-UHFFFAOYSA-N,14.58,-3,2.49,NA,NaN,NaN,NaN,NaN,NaN,NaN,NaN,NaN,NaN,NaN
Coumarin,HMDB01218,7.735,1,d,9.54,0.4674,0,O=C1OC2=CC=CC=C2C=C1,InChIKey=ZYGHJZDHTFUPRJ-UHFFFAOYSA-N,18.92,-7.1,NaN,NaN,NaN,NaN,NaN,NaN,NaN,NaN,NaN,NaN,NaN,NaN
N-Acetyl-L-tyrosine,HMDB00866,7.735,7,d,7.91,0.0562,-1,CC(=O)N[C@@H](CC1=CC=C(O)C=C1)C(O)=O,InChIKey=CAHKINHBCWCHCF-JTQLQIEISA-N,4.09,9.9,NaN,NaN,NaN,NaN,NaN,NaN,NaN,NaN,NaN,NaN,NaN,NaN
Naproxen,HMDB01923,7.735,1,d,NA,0.0986,-1,COC1=CC2=C(C=C1)C=C(C=C2)[C@H](C)C(O)=O,InChIKey=CMWTZPSULFXXJA-VIFPVBQESA-N,0.87,-0.34,NaN,NaN,NaN,NaN,NaN,NaN,NaN,NaN,NaN,NaN,NaN,NaN
p-Aminobenzoic acid,HMDB01392,7.735,2,q,4.5,0.9115,-1,NC1=CC=C(C=C1)C(O)=O,InChIKey=ALYNCZNDIQEVRV-UHFFFAOYSA-N,9.4,-3.5,NaN,NaN,NaN,NaN,NaN,NaN,NaN,NaN,NaN,NaN,NaN,NaN
L-Tryptophan,HMDB00929,7.738,12,d,7.993,NA,0,N[C@@H](CC1=CNC2=CC=CC=C12)C(O)=O,InChIKey=QIVBCDIJIAJPQS-VIFPVBQESA-N,1.86,4.79,58.96666667,4.8066,NaN,2.65,7.335,NaN,NaN,NaN,NaN,NaN,NaN,NaN
Thymidine 5'-triphosphate,HMDB01342,7.747,1,d,1.24,0.1507,-3,CC1=CN([C@H]2C[C@H](O)[C@@H](COP(O)(=O)OP(O)(=O)OP(O)(O)=O)O2)C(=O)NC1=O,InChIKey=NHVNXKFIZYSCEB-XLPZGREQSA-N,1.38,-3.7,NA,NA,NA,NA,NA,NA,NA,NA,NA,NA,NA,NA
Indolelactic acid,HMDB00671,7.755,1,d,7.92,0.6136,-1,OC(CC1=CNC2=C1C=CC=C2)C(O)=O,InChIKey=XGILAAMKEQUXLS-UHFFFAOYSA-N,7.6,5,2.8,0.46,NaN,NaN,NaN,NaN,NaN,NaN,NaN,NaN,NaN,NaN
13-cis-Retinoic acid,HMDB06219,7.755,1,s,NA,0.0324,-1,C\C(\C=C\C1=C(C)CCCC1(C)C)=C/C=C/C(/C)=C\C(O)=O,InChIKey=SHGAZHPCJJPHSC-XFYACQKRSA-N,0.38,-3.7,NaN,NaN,NaN,NaN,NaN,NaN,NaN,NaN,NaN,NaN,NaN,NaN
Phenylpyruvic acid,HMDB00205,7.775,2,m,NA,0.0757,-1,OC(=O)C(=O)CC1=CC=CC=C1,InChIKey=BTNMPGBKDVTSJY-UHFFFAOYSA-N,2.98,-3.8,0.5,NaN,NaN,NaN,NaN,NaN,NaN,NaN,NaN,NaN,NaN,NaN
5-Thymidylic acid,HMDB01227,7.775,1,s,NA,0.2987,-2,CC1=CN([C@H]2C[C@H](O)[C@@H](COP(O)(O)=O)O2)C(=O)NC1=O,InChIKey=GYOZYWVXFNDGLU-XLPZGREQSA-N,9.56,-2.9,NA,NA,NA,NA,NA,NA,NA,NA,NA,NA,NA,NA
Chalcone,HMDB03066,7.775,4,m,NA,0.2291,0,O=C(\C=C\C1=CC=CC=C1)C1=CC=CC=C1,InChIKey=DQFBYFPFKXHELB-VAWYXSNFSA-N,1.86,-0.52,NA,NA,NA,NA,NA,NA,NA,NA,NA,NA,NA,NA
Tolnaftate,HMDB05005,7.775,1,m,NA,0.006,0,CN(C(=S)OC1=CC2=CC=CC=C2C=C1)C1=CC=CC(C)=C1,InChIKey=FUSNMLFNXJSCDI-UHFFFAOYSA-N,1.87,10,NA,NA,NA,NA,NA,NA,NA,NA,NA,NA,NA,NA
Benzaldehyde,HMDB06115,7.775,1,tt,7.47 1.31,0.3496,0,O=CC1=CC=CC=C1,InChIKey=HUMNYLRZRPPJDN-UHFFFAOYSA-N,0.63,-3.6,NaN,NaN,NaN,NaN,NaN,NaN,NaN,NaN,NaN,NaN,NaN,NaN
Phenylglyoxylic acid,HMDB01587,7.775,19,t,7.46,0.5842,-1,OC(=O)C(=O)C1=CC=CC=C1,InChIKey=FAQJJMHZNSSFSM-UHFFFAOYSA-N,3.87,-3.5,NaN,NaN,NaN,NaN,NaN,NaN,NaN,NaN,NaN,NaN,NaN,NaN
Pyridoxal 5'-phosphate,HMDB01491,7.785,14,s,NA,0.4652,-2,CC1=NC=C(COP(O)(O)=O)C(C=O)=C1O,InChIKey=NGVDGCNFYWLIFO-UHFFFAOYSA-N,3.27,4.95,0.0309,NaN,NaN,NaN,NaN,NaN,NaN,NaN,NaN,NaN,NaN,NaN
Salicyluric acid,HMDB00840,7.795,1,dd,7.93 1.54,0.6666,-1,OC(=O)CNC(=O)C1=CC=CC=C1O,InChIKey=ONJSZLXSECQROL-UHFFFAOYSA-N,3.7,5.43,NaN,NaN,NaN,NaN,NaN,NaN,NaN,NaN,NaN,NaN,NaN,NaN
Thymidine 5'-triphosphate,HMDB01342,7.803,1,d,1.21,0.1284,-3,CC1=CN([C@H]2C[C@H](O)[C@@H](COP(O)(=O)OP(O)(=O)OP(O)(O)=O)O2)C(=O)NC1=O,InChIKey=NHVNXKFIZYSCEB-XLPZGREQSA-N,1.38,-3.7,NA,NA,NA,NA,NA,NA,NA,NA,NA,NA,NA,NA
Cotinine,HMDB01046,7.805,1,td,7.95 1.72,0.1171,0,CN1C(CCC1=O)C1=CN=CC=C1,InChIKey=UIKROCXWUNQSPJ-UHFFFAOYSA-N,1.68,-0.81,1.4,NaN,NaN,NA,NaN,NaN,NaN,NaN,NaN,NaN,NaN,NaN
L-Kynurenine,HMDB00684,7.805,0,dd,8.23 1.29,0.0417,0,N[C@@H](CC(=O)C1=CC=CC=C1N)C(O)=O,InChIKey=YGPSJZOEDVAXAB-QMMMGPOBSA-N,13.62,0.28,1.5,1.63,NaN,NaN,0.0019,NaN,NaN,NaN,NaN,NaN,NaN,NaN
3-Pyridylacetic acid,HMDB01538,7.805,1,dd,7.84 0.47,0.1084,-1,OC(=O)CC1=CN=CC=C1,InChIKey=WGNUNYPERJMVRM-UHFFFAOYSA-N,12.11,-0.61,NaN,NaN,NaN,NaN,NaN,NaN,NaN,NaN,NaN,NaN,NaN,NaN
Flavin Mononucleotide,HMDB01520,7.815,4,s,NA,0.0515,-3,CC1=CC2=C(C=C1C)N(C[C@H](O)[C@H](O)[C@H](O)COP(O)(O)=O)C1=NC(=O)NC(=O)C1=N2,InChIKey=FVTCRASFADXXNN-SCRDCRAPSA-N,0.83,-3.6,0.0075,NaN,NaN,NaN,NaN,NaN,NaN,NaN,NaN,NaN,NaN,NaN
4-Hydroxybenzoic acid,HMDB00500,7.815,2,d,8.61,0.9517,-1,OC(=O)C1=CC=C(O)C=C1,InChIKey=FJKROLUGYXJWQN-UHFFFAOYSA-N,2.5,-3.9,NaN,2.753333333,NaN,30.23,NaN,NaN,NaN,NaN,NaN,NaN,NaN,NaN
2-Phenylaminoadenosine,HMDB01069,7.825,2,d,NA,0.0311,0,NC1=C2N=CN(C3OC(CO)C(O)C3O)C2=NC(NC2=CC=CC=C2)=N1,InChIKey=SCNILGOVBBRMBK-UHFFFAOYSA-N,0.9,7.43,NA,NA,NA,NA,NA,NA,NA,NA,NA,NA,NA,NA
Deoxycholic acid glycine conjugate,HMDB00631,7.825,2,t,5.65,0.1201,-1,[H][C@]12CCC3C4CC[C@H]([C@H](C)CCC(=O)NCC(O)=O)[C@@]4(C)[C@@H](O)CC3[C@@]1(C)CC[C@@H](O)C2,InChIKey=WVULKSPCQVQLCU-ZMBDPXIHSA-N,1.86,-6.7,NaN,NaN,NaN,NaN,NaN,NaN,NaN,NaN,NaN,NaN,NaN,NaN
Hippuric acid,HMDB00714,7.835,2,dd,8.41 1.24,0.6328,-1,OC(=O)CNC(=O)C1=CC=CC=C1,InChIKey=QIAFMBKCNZACKA-UHFFFAOYSA-N,3.39,-3,9.87,255.32,NaN,NaN,NaN,NaN,NaN,NaN,NaN,NaN,NaN,NaN
Alpha-Hydroxyhippuric acid,HMDB02404,7.835,2,m,NA,0.9175,-1,OC(NC(=O)C1=CC=CC=C1)C(O)=O,InChIKey=GCWCVCCEIQXUQU-UHFFFAOYSA-N,4.17,-6.6,NA,NA,NA,NA,NA,NA,NA,NA,NA,NA,NA,NA
Liothyronine,HMDB00265,7.835,2,s,NA,0.7328,0,N[C@@H](CC1=CC(I)=C(OC2=CC=C(O)C(I)=C2)C(I)=C1)C(O)=O,InChIKey=AUYYCJSJGJYCDS-LBPRGKRZSA-N,1.86,-2.8,NaN,NaN,NaN,0,NaN,NaN,NaN,NaN,NaN,NaN,NaN,NaN
Thyroxine,HMDB00248,7.845,2,s,NA,1,0,N[C@@H](CC1=CC(I)=C(OC2=CC(I)=C(O)C(I)=C2)C(I)=C1)C(O)=O,InChIKey=XUIIKFGFIJCVMT-LBPRGKRZSA-N,16.07,-5.9,2.00E-05,0.00032,NaN,0,NaN,NaN,NaN,NaN,NaN,NaN,NaN,NaN
Cytidine,HMDB00089,7.845,14,d,7.6,1,0,NC1=NC(=O)N(C=C1)[C@@H]1O[C@H](CO)[C@@H](O)[C@H]1O,InChIKey=UHDGCWIWMRVCDJ-XVFCMESISA-N,12.18,-5.4,0.175,0.393333333,NaN,0.132,NaN,NaN,NaN,NaN,NaN,NaN,NaN,NaN
Chlorpheniramine,HMDB01944,7.845,1,ddd,7.73 1.33,0.0524,1,CN(C)CCC(C1=CC=C(Cl)C=C1)C1=CC=CC=N1,InChIKey=SOYKEARSMXGVTM-UHFFFAOYSA-N,1.87,10,NA,NA,NA,NA,NA,NA,NA,NA,NA,NA,NA,NA
Tolnaftate,HMDB05005,7.845,2,m,NA,0.0137,0,CN(C(=S)OC1=CC2=CC=CC=C2C=C1)C1=CC=CC(C)=C1,InChIKey=FUSNMLFNXJSCDI-UHFFFAOYSA-N,1.87,10,NA,NA,NA,NA,NA,NA,NA,NA,NA,NA,NA,NA
Brompheniramine,HMDB01941,7.845,3,ddd,7.76 1.74,0.062,1,CN(C)CCC(C1=CC=C(Br)C=C1)C1=CC=CC=N1,InChIKey=ZDIGNSYAACHWNL-UHFFFAOYSA-N,2.58,9.64,NaN,NaN,NaN,NaN,NaN,NaN,NaN,NaN,NaN,NaN,NaN,NaN
Deoxycytidine,HMDB00014,7.845,1,d,8.1,1,0,NC1=NC(=O)N(C=C1)[C@H]1C[C@H](O)[C@@H](CO)O1,InChIKey=CKTSBUTUHBMZGZ-SHYZEUOFSA-N,10.39,9.5,NaN,NaN,NaN,NaN,NaN,NaN,NaN,NaN,NaN,NaN,NaN,NaN
Salicylic acid,HMDB01895,7.845,24,dd,7.82 1.56,0.6877,-1,OC(=O)C1=CC=CC=C1O,InChIKey=YGSDEFSMJLZEOE-UHFFFAOYSA-N,2.83,0.22,NaN,1.1,NaN,NaN,NaN,NaN,NaN,NaN,NaN,NaN,NaN,NaN
Deacetyldiltiazem,HMDB02873,7.849,1,dd,7.72 1.38,0.0463,1,COC1=CC=C(C=C1)[C@@H]1SC2=CC=CC=C2N(CCN(C)C)C(=O)[C@@H]1O,InChIKey=NZHUXMZTSSZXSB-MOPGFXCFSA-N,2.52,-4,NA,NA,NA,NA,NA,NA,NA,NA,NA,NA,NA,NA
cis.cis-Muconic acid,HMDB06331,7.855,2,m,NA,0.2139,-2,OC(=O)\C=C/C=C\C(O)=O,InChIKey=TXXHDPDFNKHHGW-CCAGOZQPSA-N,1.59,-3.4,NA,NA,NA,NA,NA,NA,NA,NA,NA,NA,NA,NA
Indoleacrylic acid,HMDB00734,7.855,1,m,NA,0.104,-1,OC(=O)\C=C\C1=CC2=C(N1)C=CC=C2,InChIKey=SXOUIMVOMIGLHO-AATRIKPKSA-N,4.15,8.86,NA,NA,NA,NA,NA,NA,NA,NA,NA,NA,NA,NA
7-Methylxanthine,HMDB01991,7.855,1,d,NA,0.0392,0,CN1C=NC2=C1C(=O)NC(=O)N2,InChIKey=PFWLFWPASULGAN-UHFFFAOYSA-N,11.79,-1.9,NaN,10,NaN,NaN,NaN,NaN,NaN,NaN,NaN,NaN,NaN,NaN
Quinaldic acid,HMDB00842,7.864,1,ddd,8.46 6.98 1.39,0.6986,-1,OC(=O)C1=NC2=CC=CC=C2C=C1,InChIKey=LOAUVZALPPNFOQ-UHFFFAOYSA-N,1.91,-7.2,NA,NA,NA,NA,NA,NA,NA,NA,NA,NA,NA,NA
Anabasine,HMDB04350,7.865,1,m,NA,0.0483,1,C1CCC(NC1)C1=CN=CC=C1,InChIKey=MTXSIJUGVMTTMU-UHFFFAOYSA-N,1.86,-4.8,0.0031,4.4,NaN,NaN,NaN,NaN,NaN,NaN,NaN,NaN,NaN,NaN
FAD,HMDB01248,7.865,1,s,NA,0.4953,-3,CC1=CC2=C(C=C1C)N(C[C@H](O)[C@H](O)[C@H](O)COP(O)(=O)OP(O)(=O)OC[C@H]1O[C@H]([C@H](O)[C@@H]1O)N1C=NC3=C1N=CN=C3N)C1=NC(=O)NC(=O)C1=N2,InChIKey=VWWQXMAJTJZDQX-UYBVJOGSSA-N,10.59,-2.6,0.075,NaN,NaN,NaN,NaN,NaN,NaN,NaN,NaN,NaN,NaN,NaN
Deoxyuridine,HMDB00012,7.865,10,d,8.13,0.2507,0,OC[C@H]1O[C@H](C[C@@H]1O)N1C=CC(=O)NC1=O,InChIKey=MXHRCPNRJAMMIM-SHYZEUOFSA-N,4,-9.7,0.284,1,NaN,NaN,0,NaN,NaN,NaN,NaN,NaN,NaN,NaN
Urocanic acid,HMDB00301,7.865,1,s,NA,0.9082,-1,OC(=O)\C=C\C1=CNC=N1,InChIKey=LOIYMIARKYCTBW-OWOJBTEDSA-N,11.61,-2.8,0.43,NaN,NaN,NaN,NaN,NaN,NaN,NaN,NaN,NaN,NaN,NaN
FADH,HMDB01197,7.865,1,s,NA,0.4953,-2,CC1=CC2=C(C=C1C)N(C[C@H](O)[C@H](O)[C@H](O)COP(O)(=O)OP(O)(=O)OC[C@H]1O[C@H]([C@H](O)[C@@H]1O)N1C=NC3=C1N=CN=C3N)C1=C(N2)C(=O)NC(=O)N1,InChIKey=YPZRHBJKEMOYQH-UYBVJOGSSA-N,3.63,-3.4,NA,NA,NA,NA,NA,NA,NA,NA,NA,NA,NA,NA
Methylhippuric acid,HMDB00859,7.865,2,dd,8.45 1.29,0.0844,0,COC(=O)CNC(=O)C1=CC=CC=C1,InChIKey=XTKVNQKOTKPCKM-UHFFFAOYSA-N,1.22,-3.2,NA,NA,NA,NA,NA,NA,NA,NA,NA,NA,NA,NA
Benzocaine,HMDB04992,7.875,2,d,8.75,0.1648,0,CCOC(=O)C1=CC=C(N)C=C1,InChIKey=BLFLLBZGZJTVJG-UHFFFAOYSA-N,1.87,10,NA,NA,NA,NA,NA,NA,NA,NA,NA,NA,NA,NA
Menadione,HMDB01892,7.875,2,m,NA,0.4014,0,CC1=CC(=O)C2=CC=CC=C2C1=O,InChIKey=MJVAVZPDRWSRRC-UHFFFAOYSA-N,16.84,-3.7,NaN,NaN,NaN,NaN,NaN,NaN,NaN,NaN,NaN,NaN,NaN,NaN
Uridine,HMDB00296,7.879,2,d,8.1,0.9103,0,OC[C@H]1O[C@H]([C@H](O)[C@@H]1O)N1C=CC(=O)NC1=O,InChIKey=DRTQHJPVMGBUCF-XVFCMESISA-N,3.77,-0.35,3.11,0.602,NaN,NaN,NaN,NaN,NaN,NaN,NaN,NaN,NaN,NaN
Benzoic acid,HMDB01870,7.879,2,d,7.11,0.9085,-1,OC(=O)C1=CC=CC=C1,InChIKey=WPYMKLBDIGXBTP-UHFFFAOYSA-N,15.09,4.95,NaN,36.76666667,NaN,NaN,NaN,NaN,NaN,NaN,NaN,NaN,NaN,NaN
3.5-Diiodothyronine,HMDB00582,7.885,2,s,NA,0.0211,0,NC(CC1=CC(I)=C(OC2=CC=C(O)C=C2)C(I)=C1)C(O)=O,InChIKey=ZHSOTLOTTDYIIK-UHFFFAOYSA-N,12.59,-1.1,1.60E-05,1.80E-05,NaN,NaN,NaN,NaN,NaN,NaN,NaN,NaN,NaN,NaN
Xanthosine,HMDB00299,7.885,17,s,NA,1,0,OC[C@H]1O[C@H]([C@H](O)[C@@H]1O)N1C=NC2=C1N=C(O)N=C2O,InChIKey=UBORTCNDUKBEOP-UUOKFMHZSA-N,4.51,-0.61,5.08,NaN,NaN,NaN,NaN,NaN,NaN,NaN,NaN,NaN,NaN,NaN
1-Methylguanine,HMDB03282,7.885,3,s,NA,0.2895,0,CN1C(N)=NC2=C(NC=N2)C1=O,InChIKey=RFLVMTUMFYRZCB-UHFFFAOYSA-N,14.58,-3,NA,NA,NA,NA,NA,NA,NA,NA,NA,NA,NA,NA
Ethenodeoxyadenosine,HMDB01786,7.885,1,d,1.6,0.6251,0,OC[C@H]1O[C@H](C[C@@H]1O)N1C=NC2=C1N=CN1C=CN=C21,InChIKey=XQQIMTUYVDUWKJ-DJLDLDEBSA-N,7.67,4.94,NA,NA,NA,NA,NA,NA,NA,NA,NA,NA,NA,NA
Anatabine,HMDB04476,7.895,1,m,NA,0.0795,1,C1N[C@@H](CC=C1)C1=CN=CC=C1,InChIKey=SOPPBXUYQGUQHE-JTQLQIEISA-N,1.86,-6.7,NA,NA,NA,NA,NA,NA,NA,NA,NA,NA,NA,NA
Doxylamine,HMDB01936,7.897,1,td,7.83 1.80,0.0765,1,CN(C)CCOC(C)(C1=CC=CC=C1)C1=NC=CC=C1,InChIKey=HCFDWZZGGLSKEP-UHFFFAOYSA-N,4.63,8.61,NA,NA,NA,NA,NA,NA,NA,NA,NA,NA,NA,NA
Methylimidazoleacetic acid,HMDB02820,7.905,1,s,NA,0.1053,-1,CN1C=NC(CC(O)=O)=C1,InChIKey=ZHCKPJGJQOPTLB-UHFFFAOYSA-N,11.41,-3.7,0.08457,1.6575,NaN,NaN,NaN,NaN,NaN,NaN,NaN,NaN,NaN,NaN
Xanthine,HMDB00292,7.905,4,s,NA,0.0434,0,O=C1NC2=C(NC=N2)C(=O)N1,InChIKey=LRFVTYWOQMYALW-UHFFFAOYSA-N,7.93,-3.9,3.135,NaN,NaN,1.32,9.1,NaN,NaN,NaN,NaN,NaN,NaN,NaN
L-Histidine,HMDB00177,7.915,1,d,1.13,0.8629,0,N[C@@H](CC1=CNC=N1)C(O)=O,InChIKey=HNDVDQJCIGZPNO-YFKPBYRVSA-N,14.58,-3,118.7666667,60.60726667,NaN,NA,11.4,NaN,NaN,NaN,NaN,NaN,NaN,NaN
N-Acetyl-L-phenylalanine,HMDB00512,7.915,1,d,8.01,0.0344,-1,CC(=O)N[C@@H](CC1=CC=CC=C1)C(O)=O,InChIKey=CBQJSKKFNMDLON-JTQLQIEISA-N,4.15,9.5,NaN,NaN,NaN,NaN,NaN,NaN,NaN,NaN,NaN,NaN,NaN,NaN
Picolinic acid,HMDB02243,7.925,1,d,NA,1,-1,OC(=O)C1=CC=CC=N1,InChIKey=SIOXPEMLGUPBBT-UHFFFAOYSA-N,3.92,-2.7,0.299,1.65,NaN,NaN,0.31,NaN,NaN,NaN,NaN,NaN,NaN,NaN
Thymol,HMDB01878,7.925,1,m,7,0.0597,0,CC(C)C1=C(O)C=C(C)C=C1,InChIKey=MGSRCZKZVOBKFT-UHFFFAOYSA-N,0.81,4.95,NaN,NaN,NaN,NaN,NaN,NaN,NaN,NaN,NaN,NaN,NaN,NaN
Kynurenic acid,HMDB00715,7.931,1,dd,8.29 0.92,0.2876,-1,OC(=O)C1=CC(=O)C2=CC=CC=C2N1,InChIKey=HCZHHEIFKROPDY-UHFFFAOYSA-N,1.48,9.57,0.0265,1.34,NaN,NaN,NaN,NaN,NaN,NaN,NaN,NaN,NaN,NaN
3-Nitrotyrosine,HMDB01904,7.935,1,d,1.97,0.9222,-1,N[C@@H](CC1=CC(=C(O)C=C1)[N+]([O-])=O)C(O)=O,InChIKey=FBTSQILOGYXGMD-LURJTMIESA-N,3.73,-1.4,0.85,NaN,NaN,NaN,3.36,NaN,NaN,NaN,NaN,NaN,NaN,NaN
3-Methylhistidine,HMDB00479,7.935,1,s,NA,0.2535,0,CN1C=NC=C1C[C@H](N)C(O)=O,InChIKey=JDHILDINMRGULE-LURJTMIESA-N,1.82,5.16,2.7,5.26,NaN,27.68,NaN,NaN,NaN,NaN,NaN,NaN,NaN,NaN
N.N-Dimethylformamide,HMDB01888,7.935,1,s,NA,0.0757,0,CN(C)C=O,InChIKey=ZMXDDKWLCZADIW-UHFFFAOYSA-N,9.48,-3.5,NaN,0.17,NaN,NaN,NaN,NaN,NaN,NaN,NaN,NaN,NaN,NaN
N-Alpha-acetyllysine,HMDB00446,7.935,5,d,7.05,0.0664,0,CC(=O)NC(CCCCN)C(O)=O,InChIKey=VEYYWZRYIYDQJM-UHFFFAOYSA-N,13.85,-0.16,NaN,NaN,NaN,NaN,NaN,NaN,NaN,NaN,NaN,NaN,NaN,NaN
3-Furoic acid,HMDB00444,7.945,1,s,NA,0.5676,-1,OC(=O)C1=COC=C1,InChIKey=IHCCAYCGZOLTEU-UHFFFAOYSA-N,18.3,-3.6,NA,NA,NA,NA,NA,NA,NA,NA,NA,NA,NA,NA
Citicoline,HMDB01413,7.945,1,d,7.59,0.0922,-1,C[N+](C)(C)CCOP([O-])(=O)OP(O)(=O)OC[C@H]1O[C@H]([C@H](O)[C@@H]1O)N1C=CC(N)=NC1=O,InChIKey=RZZPDXZPRHQOCG-OJAKKHQRSA-N,2.12,-3.8,NA,NA,NA,NA,NA,NA,NA,NA,NA,NA,NA,NA
Indoleacrylic acid,HMDB00734,7.945,1,d,NA,0.1434,-1,OC(=O)\C=C\C1=CC2=C(N1)C=CC=C2,InChIKey=SXOUIMVOMIGLHO-AATRIKPKSA-N,4.15,8.86,NA,NA,NA,NA,NA,NA,NA,NA,NA,NA,NA,NA
N-Acetyl-L-aspartic acid,HMDB00812,7.945,7,d,6.76,0.013,-2,CC(=O)N[C@@H](CC(O)=O)C(O)=O,InChIKey=OTCCIMWXFLJLIA-BYPYZUCNSA-N,2.94,-3.6,NaN,0.4,NaN,NaN,0.81,NaN,NaN,NaN,NaN,NaN,NaN,NaN
Flavone,HMDB03075,7.955,2,m,NA,0.4529,0,O=C1C=C(OC2=CC=CC=C12)C1=CC=CC=C1,InChIKey=VHBFFQKBGNRLFZ-UHFFFAOYSA-N,1.86,-0.52,NA,NA,NA,NA,NA,NA,NA,NA,NA,NA,NA,NA
Indole-3-carboxylic acid,HMDB03320,7.955,1,s,NA,0.0829,-1,OC(=O)C1=CNC2=CC=CC=C12,InChIKey=KMAKOBLIOCQGJP-UHFFFAOYSA-N,14.58,-3,NA,NA,NA,NA,NA,NA,NA,NA,NA,NA,NA,NA
6-Dimethylaminopurine,HMDB00473,7.955,1,s,NA,0.7595,0,CN(C)C1=NC=NC2=C1NC=N2,InChIKey=BVIAOQMSVZHOJM-UHFFFAOYSA-N,14.93,-0.29,NaN,NaN,NaN,NaN,NaN,NaN,NaN,NaN,NaN,NaN,NaN,NaN
Uridine diphosphategalactose,HMDB00302,7.955,1,d,8.09,0.5376,-2,OC[C@H]1O[C@H](O[P@@](O)(=O)O[P@@](O)(=O)OC[C@H]2O[C@H]([C@H](O)[C@@H]2O)N2C=CC(=O)NC2=O)[C@H](O)[C@@H](O)[C@H]1O,InChIKey=HSCJRCZFDFQWRP-ABVWGUQPSA-N,4.48,-2.8,NaN,NaN,NaN,NaN,NaN,NaN,NaN,NaN,NaN,NaN,NaN,NaN
Uridine diphosphate-N-acetylglucosamine,HMDB00290,7.957,2,d,8.05,0.2409,-2,CC(=O)N[C@@H]1[C@@H](O)[C@H](O)[C@@H](CO)O[C@@H]1OP(O)(=O)OP(O)(=O)OC[C@H]1O[C@H]([C@H](O)[C@@H]1O)N1C=CC(=O)NC1=O,InChIKey=LFTYTUAZOPRMMI-CFRASDGPSA-N,4.67,-0.88,NaN,NaN,NaN,NaN,NaN,NaN,NaN,NaN,NaN,NaN,NaN,NaN
Picolinic acid,HMDB02243,7.965,1,td,7.59 1.71,0.8284,-1,OC(=O)C1=CC=CC=N1,InChIKey=SIOXPEMLGUPBBT-UHFFFAOYSA-N,3.92,-2.7,0.299,1.65,NaN,NaN,0.31,NaN,NaN,NaN,NaN,NaN,NaN,NaN
Benzaldehyde,HMDB06115,7.965,2,dd,8.17 1.13,0.6414,0,O=CC1=CC=CC=C1,InChIKey=HUMNYLRZRPPJDN-UHFFFAOYSA-N,0.63,-3.6,NaN,NaN,NaN,NaN,NaN,NaN,NaN,NaN,NaN,NaN,NaN,NaN
Propranolol,HMDB01849,7.965,1,m,NA,0.1518,1,CC(C)NCC(O)COC1=CC=CC2=CC=CC=C12,InChIKey=AQHHHDLHHXJYJD-UHFFFAOYSA-N,3.16,-4.2,NaN,NaN,NaN,NaN,NaN,NaN,NaN,NaN,NaN,NaN,NaN,NaN
Uridine diphosphate glucose,HMDB00286,7.965,2,d,8.1,0.7066,-2,OC[C@@H]1OC(OP(O)(=O)OP(O)(=O)OC[C@@H]2O[C@@H]([C@@H](O)[C@H]2O)N2C=CC(=O)NC2=O)[C@@H](O)[C@H](O)[C@H]1O,InChIKey=HSCJRCZFDFQWRP-LPTOLDDLSA-N,18.3,0.7,NaN,NaN,NaN,NaN,NaN,NaN,NaN,NaN,NaN,NaN,NaN,NaN
Quinaldic acid,HMDB00842,7.97,1,d,8.48,1,-1,OC(=O)C1=NC2=CC=CC=C2C=C1,InChIKey=LOAUVZALPPNFOQ-UHFFFAOYSA-N,1.91,-7.2,NA,NA,NA,NA,NA,NA,NA,NA,NA,NA,NA,NA
6-Dimethylaminopurine,HMDB00473,7.975,1,s,NA,0.8797,0,CN(C)C1=NC=NC2=C1NC=N2,InChIKey=BVIAOQMSVZHOJM-UHFFFAOYSA-N,14.93,-0.29,NaN,NaN,NaN,NaN,NaN,NaN,NaN,NaN,NaN,NaN,NaN,NaN
Daidzein,HMDB03312,7.975,1,d,8.75,0.4666,-1,OC1=CC=C(C=C1)C1=COC2=C(C=CC(O)=C2)C1=O,InChIKey=ZQSIJRDFPHDXIC-UHFFFAOYSA-N,14.58,-3,NaN,4.11,NaN,NaN,NaN,NaN,NaN,NaN,NaN,NaN,NaN,NaN
Menadione,HMDB01892,7.975,1,m,NA,0.1821,0,CC1=CC(=O)C2=CC=CC=C2C1=O,InChIKey=MJVAVZPDRWSRRC-UHFFFAOYSA-N,16.84,-3.7,NaN,NaN,NaN,NaN,NaN,NaN,NaN,NaN,NaN,NaN,NaN,NaN
Phenylglyoxylic acid,HMDB01587,7.975,36,d,8.46,0.9283,-1,OC(=O)C(=O)C1=CC=CC=C1,InChIKey=FAQJJMHZNSSFSM-UHFFFAOYSA-N,3.87,-3.5,NaN,NaN,NaN,NaN,NaN,NaN,NaN,NaN,NaN,NaN,NaN,NaN
Cytidine triphosphate,HMDB00082,7.984,1,d,7.55,0.6898,-3,NC1=NC(=O)N(C=C1)[C@@H]1O[C@H](COP(O)(=O)OP(O)(=O)OP(O)(O)=O)[C@@H](O)[C@H]1O,InChIKey=PCDQPRRSZKQHHS-XVFCMESISA-N,3.57,-3,NaN,NaN,NaN,NaN,NaN,NaN,NaN,NaN,NaN,NaN,NaN,NaN
Theobromine,HMDB02825,7.985,1,br. s.,NA,0.1342,0,CN1C=NC2=C1C(=O)NC(=O)N2C,InChIKey=YAPQBXQYLJRXSA-UHFFFAOYSA-N,2.84,-3.6,NaN,0.5,NaN,NaN,NaN,NaN,NaN,NaN,NaN,NaN,NaN,NaN
Deoxyguanosine,HMDB00085,7.987,1,s,NA,1,0,NC1=NC2=C(N=CN2[C@H]2C[C@H](O)[C@@H](CO)O2)C(=O)N1,InChIKey=YKBGVTZYEHREMT-KVQBGUIXSA-N,10.16,-0.04,NaN,1,NaN,NaN,NaN,NaN,NaN,NaN,NaN,NaN,NaN,NaN
Uridine 5'-diphosphate,HMDB00295,7.995,1,d,8.14,0.6144,-2,O[C@H]1[C@@H](O)[C@@H](O[C@@H]1COP(O)(=O)OP(O)(O)=O)N1C=CC(=O)NC1=O,InChIKey=XCCTYIAWTASOJW-XVFCMESISA-N,5.25,-2.8,NaN,NaN,NaN,NaN,NaN,NaN,NaN,NaN,NaN,NaN,NaN,NaN
Histamine,HMDB00870,8.005,1,s,NA,0.4251,1,NCCC1=CNC=N1,InChIKey=NTYJJOPFIAHURM-UHFFFAOYSA-N,0.83,-2.9,0.00067,10.411,NaN,3.44,0.2335,NaN,NaN,NaN,NaN,NaN,NaN,NaN
Guanosine,HMDB00133,8.005,1,s,NA,0.6011,0,NC1=NC2=C(N=CN2[C@@H]2O[C@H](CO)[C@@H](O)[C@H]2O)C(=O)N1,InChIKey=NYHBQMYGNKIUIF-UUOKFMHZSA-N,2.48,-3.6,0.8,0.08,NaN,0.101,NaN,NaN,NaN,NaN,NaN,NaN,NaN,NaN
Theophylline,HMDB01889,8.005,1,s,NA,0.2055,0,CN1C2=C(NC=N2)C(=O)N(C)C1=O,InChIKey=ZFXYFBGIUFBOJW-UHFFFAOYSA-N,0.83,-3.7,29,0.18,NaN,NaN,NaN,NaN,NaN,NaN,NaN,NaN,NaN,NaN
Berberine,HMDB03409,8.005,1,d,9.08,0.1073,1,COC1=C(OC)C2=C[N+]3=C(C=C2C=C1)C1=CC2=C(OCO2)C=C1CC3,InChIKey=YBHILYKTIRIUTE-UHFFFAOYSA-N,14.58,-3,NaN,NaN,NaN,NaN,NaN,NaN,NaN,NaN,NaN,NaN,NaN,NaN
Quinaldic acid,HMDB00842,8.013,1,d,8.2,0.6676,-1,OC(=O)C1=NC2=CC=CC=C2C=C1,InChIKey=LOAUVZALPPNFOQ-UHFFFAOYSA-N,1.91,-7.2,NA,NA,NA,NA,NA,NA,NA,NA,NA,NA,NA,NA
Quinolinic acid,HMDB00232,8.015,2,dd,7.84,1,-2,OC(=O)C1=CC=CN=C1C(O)=O,InChIKey=GJAWHXHKYYXBSV-UHFFFAOYSA-N,4.65,-6.3,0.47,2.5,NaN,NaN,0.044,NaN,NaN,NaN,NaN,NaN,NaN,NaN
Quinolinic acid,HMDB00232,8.015,2,dd,1.57,1,-2,OC(=O)C1=CC=CN=C1C(O)=O,InChIKey=GJAWHXHKYYXBSV-UHFFFAOYSA-N,4.65,-6.3,0.47,2.5,NaN,NaN,0.044,NaN,NaN,NaN,NaN,NaN,NaN,NaN
Acetylglycine,HMDB00532,8.015,4,br. s.,NA,0.0098,-1,CC(=O)NCC(O)=O,InChIKey=OKJIRPAQVSHGFK-UHFFFAOYSA-N,18.3,-1.4,69.7,NaN,NaN,56.76,NaN,NaN,NaN,NaN,NaN,NaN,NaN,NaN
Folic acid,HMDB00121,8.025,1,d,7.33,0.3194,-2,NC1=NC(=O)C2=NC(CNC3=CC=C(C=C3)C(=O)N[C@@H](CCC(O)=O)C(O)=O)=CN=C2N1,InChIKey=OVBPIULPVIDEAO-LBPRGKRZSA-N,11.25,-3.7,0.039333333,NA,NaN,NaN,0.053,NaN,NaN,NaN,NaN,NaN,NaN,NaN
Homocarnosine,HMDB00745,8.025,7,s,NA,NA,0,NCCCC(=O)N[C@@H](CC1=CNC=N1)C(O)=O,InChIKey=CCLQKVKJOGVQLU-QMMMGPOBSA-N,-1.3,-1.2,NaN,NaN,NaN,NaN,NaN,NaN,NaN,NaN,NaN,NaN,NaN,NaN