Metabolite,HMDB Name,Shift (ppm),Hs,Type,J (Hz),Height,Physiological Charge,SMILES,InChlKey,pKa (Strongest Acidic),pKa (Strongest Basic),Blood,Urine,Feces,Saliva,Cerebrospinal Fluid (CSF),Amniotic Fluid,Aqueous Humour,Ascites Fluid,Breast Milk,Lymph,Sweat,Tears
Alpha-D-Glucose,HMDB03345,3.535,1,dd,9.82 3.77,0.3089,0,OC[C@H]1O[C@H](O)[C@H](O)[C@@H](O)[C@@H]1O,InChIKey=WQZGKKKJIJFFOK-DVKNGEFBSA-N,14.58,-3,NaN,NaN,NaN,NaN,NaN,NaN,NaN,NaN,NaN,NaN,NaN,NaN
Beta-N-Acetylglucosamine,HMDB00803,3.535,1,m,NA,0.0418,0,CC(=O)N[C@H]1[C@H](O)O[C@H](CO)[C@@H](O)[C@@H]1O,InChIKey=OVRNDRQMDRJTHS-FMDGEEDCSA-N,1.16,8.69,NaN,NaN,NaN,NaN,NaN,NaN,NaN,NaN,NaN,NaN,NaN,NaN
N-Acetylmannosamine,HMDB01129,3.535,1,t,9.88,0.1193,0,[H][C@@]1(O)O[C@H](CO)[C@@H](O)[C@H](O)[C@@H]1NC(C)=O,InChIKey=OVRNDRQMDRJTHS-OZRXBMAMSA-N,2.86,2.89,NaN,NaN,NaN,NaN,NaN,NaN,NaN,NaN,NaN,NaN,NaN,NaN
Levoglucosan,HMDB00640,3.537,1,m,NA,0.8699,0,[H][C@@]12OC[C@@H](O1)[C@@H](O)[C@H](O)[C@H]2O,InChIKey=TWNIBLMWSKIRAT-VFUOTHLCSA-N,4.15,-7,NaN,NaN,NaN,NaN,NaN,NaN,NaN,NaN,NaN,NaN,NaN,NaN
D-Glucose,HMDB00122,3.539,5,dd,9.823 3.732,NA,0,OC[C@H]1OC(O)[C@H](O)[C@@H](O)[C@@H]1O,InChIKey=WQZGKKKJIJFFOK-GASJEMHNSA-N,1.89,-6.6,4935.2875,17.15333333,NaN,NA,2340,NaN,NaN,NaN,NaN,NaN,NaN,NaN
Myoinositol,HMDB00211,3.539,31,dd,9.978 2.867,NA,0,O[C@H]1[C@H](O)[C@@H](O)[C@H](O)[C@H](O)[C@@H]1O,InChIKey=CDAISMWEOUEBRE-GPIVLXJGSA-N,11.92,7.06,NA,52.8,NaN,21.78,132.325,NaN,NaN,NaN,NaN,NaN,NaN,NaN
Dehydroepiandrosterone,HMDB00077,3.545,3,m,NA,0.0424,0,C[C@]12CCC3C(CC=C4C[C@@H](O)CC[C@]34C)C1CCC2=O,InChIKey=FMGSKLZLMKYGDP-INNQQZFDSA-N,1.49,9.22,0.023,0.0658,NaN,0.0033,NaN,NaN,NaN,NaN,NaN,NaN,NaN,NaN
Coenzyme A,HMDB01423,3.545,1,dd,9.79 4.90,0.1011,-4,CC(C)(COP(O)(=O)OP(O)(=O)OC[C@H]1O[C@H]([C@H](O)[C@@H]1OP(O)(O)=O)N1C=NC2=C1N=CN=C2N)C(O)C(=O)NCCC(=O)NCCS,InChIKey=RGJOEKWQDUBAIZ-DRCCLKDXSA-N,16.92,3.22,NA,NA,NA,NA,NA,NA,NA,NA,NA,NA,NA,NA
Glucosamine 6-sulfate,HMDB00592,3.545,3,m,NA,0.2524,0,N[C@H]1[C@H](O)O[C@H](COS(O)(=O)=O)[C@@H](O)[C@@H]1O,InChIKey=MTDHILKWIRSIHB-QZABAPFNSA-N,3.2,4.54,NA,NA,NA,NA,NA,NA,NA,NA,NA,NA,NA,NA
Phenylacetic acid,HMDB00209,3.545,2,s,NA,1,-1,OC(=O)CC1=CC=CC=C1,InChIKey=WLJVXDMOQOGPHL-UHFFFAOYSA-N,11.3,-0.16,NA,2.12,NaN,47.04,NaN,NaN,NaN,NaN,NaN,NaN,NaN,NaN
1-Hexadecanol,HMDB03424,3.545,2,t,6.68,0.1585,0,CCCCCCCCCCCCCCCCO,InChIKey=BXWNKGSJHAJOGX-UHFFFAOYSA-N,14.58,-3,NaN,NaN,NaN,NaN,NaN,NaN,NaN,NaN,NaN,NaN,NaN,NaN
Hyodeoxycholic acid,HMDB00733,3.545,2,br. s.,NA,0.3314,-1,[H][C@@]12CC[C@H]([C@H](C)CCC(O)=O)[C@@]1(C)CC[C@@]1([H])[C@@]2([H])C[C@H](O)C2C[C@H](O)CC[C@]12C,InChIKey=DGABKXLVXPYZII-CDONHWFASA-N,5.01,-3.2,NaN,NaN,NaN,NaN,NaN,NaN,NaN,NaN,NaN,NaN,NaN,NaN
Octanol,HMDB01183,3.545,2,t,6.68,0.991,0,CCCCCCCCO,InChIKey=KBPLFHHGFOOTCA-UHFFFAOYSA-N,0.28,-3,NaN,NaN,NaN,NaN,NaN,NaN,NaN,NaN,NaN,NaN,NaN,NaN
Stigmasterol,HMDB00937,3.545,1,m,NA,0.1049,0,CC[C@H](\C=C\[C@@H](C)[C@@]1([H])CC[C@@]2([H])[C@]3([H])CC=C4C[C@@H](O)CC[C@]4(C)[C@@]3([H])CC[C@]12C)C(C)C,InChIKey=HCXVJBMSMIARIN-PHZDYDNGSA-N,16.3,5.29,NaN,NaN,NaN,NaN,NaN,NaN,NaN,NaN,NaN,NaN,NaN,NaN
Uridine diphosphate glucose,HMDB00286,3.545,2,dt,9.75 3.16,0.3463,-2,OC[C@@H]1OC(OP(O)(=O)OP(O)(=O)OC[C@@H]2O[C@@H]([C@@H](O)[C@H]2O)N2C=CC(=O)NC2=O)[C@@H](O)[C@H](O)[C@H]1O,InChIKey=HSCJRCZFDFQWRP-LPTOLDDLSA-N,18.3,0.7,NaN,NaN,NaN,NaN,NaN,NaN,NaN,NaN,NaN,NaN,NaN,NaN
Deacetyldiltiazem,HMDB02873,3.546,1,ddd,12.95 9.56 5.71,0.0173,1,COC1=CC=C(C=C1)[C@@H]1SC2=CC=CC=C2N(CCN(C)C)C(=O)[C@@H]1O,InChIKey=NZHUXMZTSSZXSB-MOPGFXCFSA-N,2.52,-4,NA,NA,NA,NA,NA,NA,NA,NA,NA,NA,NA,NA
Theophylline,HMDB01889,3.55,3,s,NA,1,0,CN1C2=C(NC=N2)C(=O)N(C)C1=O,InChIKey=ZFXYFBGIUFBOJW-UHFFFAOYSA-N,0.83,-3.7,29,0.18,NaN,NaN,NaN,NaN,NaN,NaN,NaN,NaN,NaN,NaN
Propylene glycol,HMDB01881,3.552,16,dd,NA,NA,0,CC(O)CO,InChIKey=DNIAPMSPPWPWGF-UHFFFAOYSA-N,2.03,4.95,12.15,NaN,NaN,NA,33,NaN,NaN,NaN,NaN,NaN,NaN,NaN
Etiocholanolone,HMDB00490,3.555,1,m,NA,0.0633,0,[H][C@@]12CCC(=O)[C@@]1(C)CC[C@@]1([H])[C@@]2([H])CC[C@]2([H])C[C@H](O)CC[C@]12C,InChIKey=QGXBDMJGAMFCBF-BNSUEQOYSA-N,3.89,9.5,0.0013,NaN,NaN,NaN,NaN,NaN,NaN,NaN,NaN,NaN,NaN,NaN
SM(d18:1/18:0),HMDB01348,3.555,2,m,NA,0.0173,0,CCCCCCCCCCCCCCCCCC(=O)N[C@@]([H])(COP(O)(=O)OCC[N+](C)(C)C)[C@]([H])(O)\C=C\CCCCCCCCCCCCC,InChIKey=LKQLRGMMMAHREN-YJFXYUILSA-O,1.86,-6.7,157.1,NaN,NaN,0.121,NaN,NaN,NaN,NaN,NaN,NaN,NaN,NaN
Glycine,HMDB00123,3.555,2,s,NA,1,0,NCC(O)=O,InChIKey=DHMQDGOQFOQNFH-UHFFFAOYSA-N,0.93,9.34,295.1,140.3883333,NaN,NA,6.6575,NaN,NaN,NaN,NaN,NaN,NaN,NaN
Isomaltose,HMDB02923,3.555,3,m,NA,0.6365,0,OC[C@H]1O[C@H](OC[C@H]2OC(O)[C@H](O)[C@@H](O)[C@@H]2O)[C@H](O)[C@@H](O)[C@@H]1O,InChIKey=DLRVVLDZNNYCBX-RTPHMHGBSA-N,9.91,-1.4,NaN,NaN,NaN,NaN,NaN,NaN,NaN,NaN,NaN,NaN,NaN,NaN
Metoprolol,HMDB01932,3.555,2,td,7.10 0.92,0.1827,1,COCCC1=CC=C(OCC(O)CNC(C)C)C=C1,InChIKey=IUBSYMUCCVWXPE-UHFFFAOYSA-N,0.83,7.85,NaN,NaN,NaN,NaN,NaN,NaN,NaN,NaN,NaN,NaN,NaN,NaN
Quinic acid,HMDB03072,3.555,1,dd,9.27 3.27,0.2259,-1,OC1C[C@@](O)(C[C@@H](O)[C@H]1O)C(O)=O,InChIKey=AAWZDTNXLSGCEK-RKGSPJAZSA-N,1.86,-0.032,NaN,NaN,NaN,NaN,NaN,NaN,NaN,NaN,NaN,NaN,NaN,NaN
Rutin,HMDB03249,3.555,1,dd,9.52 3.47,0.1381,-1,C[C@@H]1O[C@@H](OC[C@H]2O[C@@H](OC3=C(OC4=CC(O)=CC(O)=C4C3=O)C3=CC(O)=C(O)C=C3)[C@H](O)[C@@H](O)[C@@H]2O)[C@H](O)[C@H](O)[C@H]1O,InChIKey=IKGXIBQEEMLURG-NVPNHPEKSA-N,14.58,-3,NaN,NaN,NaN,NaN,NaN,NaN,NaN,NaN,NaN,NaN,NaN,NaN
Propyl alcohol,HMDB00820,3.565,1,t,6.63,0.8603,0,CCCO,InChIKey=BDERNNFJNOPAEC-UHFFFAOYSA-N,3.93,4.94,0.33,NaN,NaN,NaN,NaN,NaN,NaN,NaN,NaN,NaN,NaN,NaN
Fructose 6-phosphate,HMDB00124,3.565,11,m,NA,0.2101,-2,OCC(=O)[C@@H](O)[C@H](O)[C@H](O)COP(O)(O)=O,InChIKey=GSXOAOHZAIYLCY-HSUXUTPPSA-N,3.78,-4,10.2,NaN,NaN,NaN,NaN,NaN,NaN,NaN,NaN,NaN,NaN,NaN
N-Acetyllactosamine,HMDB01542,3.565,1,m,NA,0.1059,0,CC(=O)N[C@H]1[C@H](O)O[C@H](CO)[C@@H](O[C@@H]2O[C@H](CO)[C@H](O)[C@H](O)[C@H]2O)[C@@H]1O,InChIKey=KFEUJDWYNGMDBV-LODBTCKLSA-N,4.82,-0.54,NA,NA,NA,NA,NA,NA,NA,NA,NA,NA,NA,NA
5a-Androstane-3b.17b-diol,HMDB00493,3.565,2,m,NA,0.1027,0,[H][C@@]12CC[C@H](O)[C@@]1(C)CC[C@@]1([H])[C@@]2([H])CC[C@@]2([H])C[C@@H](O)CC[C@]12C,InChIKey=CBMYJHIOYJEBSB-YSZCXEEOSA-N,1.47,-3.7,NaN,NaN,NaN,NaN,NaN,NaN,NaN,NaN,NaN,NaN,NaN,NaN
Alpha-Lactose,HMDB00186,3.565,2,m,NA,0.4069,0,OC[C@H]1O[C@@H](O[C@H]2[C@H](O)[C@@H](O)[C@@H](O)O[C@@H]2CO)[C@H](O)[C@@H](O)[C@H]1O,InChIKey=GUBGYTABKSRVRQ-XLOQQCSPSA-N,1.87,10,NaN,1.45,NaN,NaN,NaN,NaN,NaN,NaN,NaN,NaN,NaN,NaN
Glycylproline,HMDB00721,3.565,2,m,NA,0.0763,0,NCC(=O)N1CCCC1C(O)=O,InChIKey=KZNQNBZMBZJQJO-UHFFFAOYSA-N,2.78,8.78,NaN,0.4,NaN,NaN,NaN,NaN,NaN,NaN,NaN,NaN,NaN,NaN
Raffinose,HMDB03213,3.565,2,m,NA,0.4441,0,OC[C@H]1O[C@@](CO)(OC2O[C@H](COC3O[C@H](CO)[C@H](O)[C@H](O)[C@H]3O)[C@@H](O)[C@H](O)[C@H]2O)[C@@H](O)[C@@H]1O,InChIKey=MUPFEKGTMRGPLJ-BQCSWRFHSA-N,14.58,-3,NaN,NaN,NaN,NaN,NaN,NaN,NaN,NaN,NaN,NaN,NaN,NaN
Sucrose,HMDB00258,3.565,1,dd,9.98,0.242,0,OC[C@H]1O[C@@](CO)(O[C@H]2O[C@H](CO)[C@@H](O)[C@H](O)[C@H]2O)[C@@H](O)[C@@H]1O,InChIKey=CZMRCDWAGMRECN-UGDNZRGBSA-N,8.75,9.83,NaN,5.86275,NaN,NaN,NaN,NaN,NaN,NaN,NaN,NaN,NaN,NaN
Sucrose,HMDB00258,3.565,1,dd,3.89,0.242,0,OC[C@H]1O[C@@](CO)(O[C@H]2O[C@H](CO)[C@@H](O)[C@H](O)[C@H]2O)[C@@H](O)[C@@H]1O,InChIKey=CZMRCDWAGMRECN-UGDNZRGBSA-N,8.75,9.83,NaN,5.86275,NaN,NaN,NaN,NaN,NaN,NaN,NaN,NaN,NaN,NaN
Taurodeoxycholic acid,HMDB00896,3.565,2,q,6.36,0.3978,-1,[H][C@@]1(CC[C@@]2([H])[C@]3([H])CC[C@]4([H])C[C@H](O)CC[C@]4(C)[C@@]3([H])C[C@H](O)[C@]12C)[C@H](C)CCC(=O)NCCS(O)(=O)=O,InChIKey=AWDRATDZQPNJFN-VAYUFCLWSA-N,1.86,-6.7,NaN,NaN,NaN,NaN,NaN,NaN,NaN,NaN,NaN,NaN,NaN,NaN
Glycerol,HMDB00131,3.566,37,m,NA,NA,0,OCC(O)CO,InChIKey=PEDCQBHIVMGVHV-UHFFFAOYSA-N,12.76,-9.7,174.5333333,NaN,NaN,167.46,23.33333333,NaN,NaN,NaN,NaN,NaN,NaN,NaN
Uridine diphosphate-N-acetylglucosamine,HMDB00290,3.57,1,dd,NA,0.1102,-2,CC(=O)N[C@@H]1[C@@H](O)[C@H](O)[C@@H](CO)O[C@@H]1OP(O)(=O)OP(O)(=O)OC[C@H]1O[C@H]([C@H](O)[C@@H]1O)N1C=CC(=O)NC1=O,InChIKey=LFTYTUAZOPRMMI-CFRASDGPSA-N,4.67,-0.88,NaN,NaN,NaN,NaN,NaN,NaN,NaN,NaN,NaN,NaN,NaN,NaN
Glucose 6-phosphate,HMDB01401,3.575,2,ddd,9.63 4.01 2.45,0.7093,-2,OC1O[C@H](COP(O)(O)=O)[C@@H](O)[C@H](O)[C@H]1O,InChIKey=NBSCHQHZLSJFNQ-GASJEMHNSA-N,1.86,4.95,29.1,NaN,NaN,NaN,NaN,NaN,NaN,NaN,NaN,NaN,NaN,NaN
Muramic acid,HMDB03254,3.575,3,m,NA,0.2175,0,C[C@@H](O[C@H]1[C@@H](N)[C@H](O)O[C@H](CO)[C@H]1O)C(O)=O,InChIKey=MSFSPUZXLOGKHJ-LEISLEKSSA-N,14.58,-3,NA,NA,NA,NA,NA,NA,NA,NA,NA,NA,NA,NA
Stachyose,HMDB03553,3.575,1,dd,10.01 3.85,0.2374,0,OC[C@H]1O[C@@](CO)(O[C@H]2O[C@H](CO[C@H]3O[C@H](CO[C@H]4O[C@H](CO)[C@H](O)[C@H](O)[C@H]4O)[C@H](O)[C@H](O)[C@H]3O)[C@@H](O)[C@H](O)[C@H]2O)[C@@H](O)[C@@H]1O,InChIKey=UQZIYBXSHAGNOE-XNSRJBNMSA-N,14.58,-3,NA,NA,NA,NA,NA,NA,NA,NA,NA,NA,NA,NA
Ortho-Hydroxyphenylacetic acid,HMDB00669,3.575,2,s,NA,1,-1,OC(=O)CC1=CC=CC=C1O,InChIKey=CCVYRRGZDBSHFU-UHFFFAOYSA-N,3.2,-1.3,NaN,NaN,NaN,NaN,NaN,NaN,NaN,NaN,NaN,NaN,NaN,NaN
D-Mannose,HMDB00169,3.579,5,t,9.705,NA,0,OC[C@H]1OC(O)[C@@H](O)[C@@H](O)[C@@H]1O,InChIKey=WQZGKKKJIJFFOK-QTVWNMPRSA-N,3.66,9.48,39,1.25,NaN,NaN,44,NaN,NaN,NaN,NaN,NaN,NaN,NaN
Doxylamine,HMDB01936,3.584,1,ddd,11.79 6.14 3.88,0.0299,1,CN(C)CCOC(C)(C1=CC=CC=C1)C1=NC=CC=C1,InChIKey=HCFDWZZGGLSKEP-UHFFFAOYSA-N,4.63,8.61,NA,NA,NA,NA,NA,NA,NA,NA,NA,NA,NA,NA
5-Hydroxyindoleacetic acid,HMDB00763,3.585,2,s,NA,1,-1,OC(=O)CC1=CNC2=CC=C(O)C=C12,InChIKey=DUUGKQCEGZLZNO-UHFFFAOYSA-N,3.16,4.95,0.0516,1.55,NaN,NaN,0.082666667,NaN,NaN,NaN,NaN,NaN,NaN,NaN
Pipecolic acid,HMDB00070,3.585,1,dd,11.58 3.43,0.6048,0,OC(=O)C1CCCCN1,InChIKey=HXEACLLIILLPRG-UHFFFAOYSA-N,2.8,-3.6,1.83,0.114,NaN,NaN,0.403,NaN,NaN,NaN,NaN,NaN,NaN,NaN
L-Arabitol,HMDB01851,3.585,2,dd,8.30 1.62,0.4053,0,OC[C@H](O)C(O)[C@@H](O)CO,InChIKey=HEBKCHPVOIAQTA-IMJSIDKUSA-N,-2,-1.6,2,19.28,NaN,NaN,28.9,NaN,NaN,NaN,NaN,NaN,NaN,NaN
Atenolol,HMDB01924,3.585,2,s,NA,0.9275,1,CC(C)NCC(O)COC1=CC=C(CC(N)=O)C=C1,InChIKey=METKIMKYRPQLGS-UHFFFAOYSA-N,15.74,-0.94,NaN,NaN,NaN,NaN,NaN,NaN,NaN,NaN,NaN,NaN,NaN,NaN
L-Pipecolic acid,HMDB00716,3.585,1,dd,11.66 3.52,0.3627,0,OC(=O)[C@@H]1CCCCN1,InChIKey=HXEACLLIILLPRG-YFKPBYRVSA-N,10.87,-4.9,NaN,NaN,NaN,NaN,NaN,NaN,NaN,NaN,NaN,NaN,NaN,NaN
Naringin,HMDB02927,3.585,4,s,NA,0.0428,0,C[C@@H]1O[C@@H](O[C@@H]2[C@@H](O)[C@H](O)[C@@H](CO)O[C@H]2OC2=CC(O)=C3C(=O)C[C@H](OC3=C2)C2=CC=C(O)C=C2)[C@H](O)[C@H](O)[C@H]1O,InChIKey=DFPMSGMNTNDNHN-ZPHOTFPESA-N,3.04,-3.3,NaN,NaN,NaN,NaN,NaN,NaN,NaN,NaN,NaN,NaN,NaN,NaN
L-Threonine,HMDB00167,3.59,20,d,4.867,NA,0,C[C@@H](O)[C@H](N)C(O)=O,InChIKey=AYFVYJQAPQTCCC-GBXIJSLDSA-N,2.93,10,157.5,9.994,NaN,NA,25.0125,NaN,NaN,NaN,NaN,NaN,NaN,NaN
D-Fructose,HMDB00660,3.592,13,m,NA,NA,0,OC[C@H]1O[C@](O)(CO)[C@@H](O)[C@@H]1O,InChIKey=RFSUNEUAIZKAJO-ARQDHWQXSA-N,3.61,-7,31,NaN,NaN,NaN,200,NaN,NaN,NaN,NaN,NaN,NaN,NaN
3-Deoxyarabinohexonic acid,HMDB00346,3.595,0,d,NA,0.3934,-1,OC[C@@H](O)[C@@H](O)C[C@H](O)C(O)=O,InChIKey=YGMNHEPVTNXLLS-VAYJURFESA-N,4.31,-7.3,NA,NA,NA,NA,NA,NA,NA,NA,NA,NA,NA,NA
Maltitol,HMDB02928,3.595,1,dd,9.93 3.88,0.5602,0,[H][C@@](O[C@H]1O[C@H](CO)[C@@H](O)[C@H](O)[C@H]1O)([C@H](O)CO)[C@H](O)[C@@H](O)CO,InChIKey=VQHSOMBJVWLPSR-WUJBLJFYSA-N,1.22,-0.88,NA,NA,NA,NA,NA,NA,NA,NA,NA,NA,NA,NA
1.5-Anhydrosorbitol,HMDB02712,3.595,2,m,NA,0.284,0,OC[C@H]1OC[C@H](O)[C@@H](O)[C@@H]1O,InChIKey=MPCAJMNYNOGXPB-SLPGGIOYSA-N,1.86,-6.7,NaN,NaN,NaN,NaN,62.96666667,NaN,NaN,NaN,NaN,NaN,NaN,NaN
3-Pyridylacetic acid,HMDB01538,3.595,2,s,NA,1,-1,OC(=O)CC1=CN=CC=C1,InChIKey=WGNUNYPERJMVRM-UHFFFAOYSA-N,12.11,-0.61,NaN,NaN,NaN,NaN,NaN,NaN,NaN,NaN,NaN,NaN,NaN,NaN
D-Maltose,HMDB00163,3.595,4,m,NA,1,0,OC[C@H]1O[C@H](O[C@H]2[C@H](O)[C@H](O)[C@@H](O)O[C@@H]2CO)[C@H](O)[C@@H](O)[C@@H]1O,InChIKey=GUBGYTABKSRVRQ-DKBJLJRDSA-N,7.93,9.34,NaN,NaN,NaN,NaN,NaN,NaN,NaN,NaN,NaN,NaN,NaN,NaN
Hydroxyphenylacetylglycine,HMDB00735,3.595,1,s,NA,1,-1,OC(=O)CNC(=O)CC1=CC=C(O)C=C1,InChIKey=CPPDWYIPKSSNNM-UHFFFAOYSA-N,3.98,4.99,NaN,NaN,NaN,NaN,NaN,NaN,NaN,NaN,NaN,NaN,NaN,NaN
D-Glucuronic acid,HMDB00127,3.596,1,dd,9.78 3.76,0.0432,-1,O[C@H]1O[C@@H]([C@@H](O)[C@H](O)[C@H]1O)C(O)=O,InChIKey=AEMOLEFTQBMNLQ-WAXACMCWSA-N,3.07,-3,NaN,36.07,NaN,NaN,NaN,NaN,NaN,NaN,NaN,NaN,NaN,NaN
1-Butanol,HMDB04327,3.605,2,t,6.63,0.6536,0,CCCCO,InChIKey=LRHPLDYGYMQRHN-UHFFFAOYSA-N,1.86,-6.7,0.08,NaN,NaN,NaN,NaN,NaN,NaN,NaN,NaN,NaN,NaN,NaN
Caffeine,HMDB01847,3.605,3,s,NA,1,0,CN1C=NC2=C1C(=O)N(C)C(=O)N2C,InChIKey=RYYVLZVUVIJVGH-UHFFFAOYSA-N,3.78,-2.4,78,0.33,NaN,9.65,NaN,NaN,NaN,NaN,NaN,NaN,NaN,NaN
Glyceraldehyde,HMDB01051,3.605,3,m,NA,1,0,OCC(O)C=O,InChIKey=MNQZXJOMYWMBOU-UHFFFAOYSA-N,1.37,-1.4,1476,NaN,NaN,NaN,NaN,NaN,NaN,NaN,NaN,NaN,NaN,NaN
N-Acetyllactosamine,HMDB01542,3.605,0,m,NA,0.0215,0,CC(=O)N[C@H]1[C@H](O)O[C@H](CO)[C@@H](O[C@@H]2O[C@H](CO)[C@H](O)[C@H](O)[C@H]2O)[C@@H]1O,InChIKey=KFEUJDWYNGMDBV-LODBTCKLSA-N,4.82,-0.54,NA,NA,NA,NA,NA,NA,NA,NA,NA,NA,NA,NA
Alpha-Lactose,HMDB00186,3.605,2,d,3.68,0.3175,0,OC[C@H]1O[C@@H](O[C@H]2[C@H](O)[C@@H](O)[C@@H](O)O[C@@H]2CO)[C@H](O)[C@@H](O)[C@H]1O,InChIKey=GUBGYTABKSRVRQ-XLOQQCSPSA-N,1.87,10,NaN,1.45,NaN,NaN,NaN,NaN,NaN,NaN,NaN,NaN,NaN,NaN
D-Xylulose,HMDB01644,3.605,2,dd,NA,0.2946,0,OC[C@@H](O)[C@H](O)C(=O)CO,InChIKey=ZAQJHHRNXZUBTE-WUJLRWPWSA-N,3.08,-1,NaN,NaN,NaN,NaN,NaN,NaN,NaN,NaN,NaN,NaN,NaN,NaN
Saccharopine,HMDB00279,3.605,1,t,5.7,0.2408,-1,N[C@@H](CCCCN[C@@H](CCC(O)=O)C(O)=O)C(O)=O,InChIKey=ZDGJAHTZVHVLOT-YUMQZZPRSA-N,4.48,-2.8,NaN,NaN,NaN,NaN,NaN,NaN,NaN,NaN,NaN,NaN,NaN,NaN
Rhamnose,HMDB00849,3.607,1,dd,9.32 3.31,0.1178,0,C[C@@H]1OC(O)[C@H](O)[C@H](O)[C@H]1O,InChIKey=SHZGCJCMOBCMKK-JFNONXLTSA-N,0.89,-1.5,NaN,NaN,NaN,NaN,NaN,NaN,NaN,NaN,NaN,NaN,NaN,NaN
Lathosterol,HMDB01170,3.615,1,m,NA,0.0027,0,[H][C@@]1(CC[C@@]2([H])C3=CC[C@@]4([H])C[C@@H](O)CC[C@]4(C)[C@@]3([H])CC[C@]12C)[C@H](C)CCCC(C)C,InChIKey=IZVFFXVYBHFIHY-SKCNUYALSA-N,1.57,-2.4,3.905,NaN,NaN,NaN,NaN,NaN,NaN,NaN,NaN,NaN,NaN,NaN
5alpha-Cholestanol,HMDB00908,3.615,1,s,NA,0.0472,0,[H][C@@]1(CC[C@@]2([H])[C@]3([H])CC[C@@]4([H])C[C@@H](O)CC[C@]4(C)[C@@]3([H])CC[C@]12C)[C@H](C)CCCC(C)C,InChIKey=QYIXCDOBOSTCEI-QCYZZNICSA-N,4.05,-3,9.26,NaN,NaN,NaN,NaN,NaN,NaN,NaN,NaN,NaN,NaN,NaN
12-Hydroxydodecanoic acid,HMDB02059,3.615,6,m,NA,0.1879,-1,OCCCCCCCCCCCC(O)=O,InChIKey=ZDHCZVWCTKTBRY-UHFFFAOYSA-N,1.9,-3.1,NA,NA,NA,NA,NA,NA,NA,NA,NA,NA,NA,NA
4-Methoxyphenylacetic acid,HMDB02072,3.615,3,s,NA,0.628,-1,COC1=CC=C(CC(O)=O)C=C1,InChIKey=NRPFNQUDKRYCNX-UHFFFAOYSA-N,13.04,6.91,NaN,NaN,NaN,NaN,NaN,NaN,NaN,NaN,NaN,NaN,NaN,NaN
Deoxycholic acid glycine conjugate,HMDB00631,3.615,2,m,NA,0.0599,-1,[H][C@]12CCC3C4CC[C@H]([C@H](C)CCC(=O)NCC(O)=O)[C@@]4(C)[C@@H](O)CC3[C@@]1(C)CC[C@@H](O)C2,InChIKey=WVULKSPCQVQLCU-ZMBDPXIHSA-N,1.86,-6.7,NaN,NaN,NaN,NaN,NaN,NaN,NaN,NaN,NaN,NaN,NaN,NaN
Glycogen,HMDB00757,3.615,10,m,NA,0.0092,0,OC[C@H]1O[C@H](OC[C@H]2O[C@H](O[C@H]3[C@H](O)[C@@H](O)[C@@H](O)O[C@@H]3CO)[C@H](O)[C@@H](O)[C@@H]2O[C@H]2O[C@H](CO)[C@@H](O)[C@H](O)[C@H]2O)[C@H](O)[C@@H](O)[C@@H]1O,InChIKey=BYSGBSNPRWKUQH-UJDJLXLFSA-N,2.54,-7.5,NaN,NaN,NaN,NaN,NaN,NaN,NaN,NaN,NaN,NaN,NaN,NaN
Sarcosine,HMDB00271,3.615,2,s,NA,0.5575,0,CNCC(O)=O,InChIKey=FSYKKLYZXJSNPZ-UHFFFAOYSA-N,4.48,-0.54,NaN,0.47,NaN,NA,NaN,NaN,NaN,NaN,NaN,NaN,NaN,NaN
L-Valine,HMDB00883,3.616,1,d,4.33,0.3374,0,CC(C)[C@H](N)C(O)=O,InChIKey=KZSNJWFQEVHDMF-BYPYZUCNSA-N,1.4,9.51,237.2,NA,NaN,NA,18,NaN,NaN,NaN,NaN,NaN,NaN,NaN
Taurocholic acid,HMDB00036,3.625,1,br. s.,NA,0.1393,-1,[H][C@@]12C[C@H](O)CCC1(C)C1C[C@H](O)C3(C)C(CCC3C1[C@H](O)C2)C(C)CCC(=O)NCCS(O)(=O)=O,InChIKey=WBWWGRHZICKQGZ-BKXUXKPJSA-N,19.03,-2.8,0.38,NaN,NaN,NaN,NaN,NaN,NaN,NaN,NaN,NaN,NaN,NaN
N-Acetylneuraminic acid,HMDB00230,3.625,1,dd,11.86 6.46,0.0833,-1,CC(=O)N[C@@H]1[C@@H](O)C[C@](O)(O[C@H]1[C@H](O)[C@H](O)CO)C(O)=O,InChIKey=SQVRNKJHWKZAKO-PFQGKNLYSA-N,2.89,6.96,0.57,8.6,NaN,NaN,11.9,NaN,NaN,NaN,NaN,NaN,NaN,NaN
L-Acetylcarnitine,HMDB00201,3.625,1,d,NA,0.0405,0,CC(=O)OC(CC([O-])=O)C[N+](C)(C)C,InChIKey=RDHQFKQIGNGIED-UHFFFAOYSA-N,4.95,-2.2,5.48,NaN,NaN,0.973,NaN,NaN,NaN,NaN,NaN,NaN,NaN,NaN
2.3-Butanediol,HMDB03156,3.625,1,m,NA,0.0764,0,CC(O)C(C)O,InChIKey=OWBTYPJTUOEWEK-UHFFFAOYSA-N,14.58,-3,7.9,NaN,NaN,NaN,NaN,NaN,NaN,NaN,NaN,NaN,NaN,NaN
Glycerol 3-phosphate,HMDB00126,3.625,1,dd,11.80 5.95,0.7776,-2,OC[C@@H](O)COP(O)(O)=O,InChIKey=AWUCVROLDVIAJX-GSVOUGTGSA-N,1.87,-2.9,30,NaN,NaN,NaN,NaN,NaN,NaN,NaN,NaN,NaN,NaN,NaN
Amlodipine,HMDB05018,3.625,3,s,NA,1,1,CCOC(=O)C1=C(COCCN)NC(C)=C(C1C1=CC=CC=C1Cl)C(=O)OC,InChIKey=HTIQEAQVCYTUBX-UHFFFAOYSA-N,1.87,10,NA,NA,NA,NA,NA,NA,NA,NA,NA,NA,NA,NA
Glucosamine 6-phosphate,HMDB01254,3.625,19,m,NA,0.9334,-1,N[C@H]1[C@@H](O)O[C@H](COP(O)(O)=O)[C@@H](O)[C@@H]1O,InChIKey=XHMJOUIAFHJHBW-UKFBFLRUSA-N,7.82,9.73,NA,NA,NA,NA,NA,NA,NA,NA,NA,NA,NA,NA
D-Threitol,HMDB04136,3.625,2,m,NA,0.7443,0,OC[C@@H](O)[C@H](O)CO,InChIKey=UNXHWFMMPAWVPI-QWWZWVQMSA-N,1.86,-6.7,NaN,10,NaN,NaN,NaN,NaN,NaN,NaN,NaN,NaN,NaN,NaN
Epiandrosterone,HMDB00365,3.625,1,m,NA,0.0482,0,[H][C@@]12CCC(=O)[C@@]1(C)CC[C@@]1([H])[C@@]2([H])CCC2C[C@@H](O)CC[C@]12C,InChIKey=QGXBDMJGAMFCBF-QRIARFFBSA-N,9.61,-3,NaN,NaN,NaN,NaN,NaN,NaN,NaN,NaN,NaN,NaN,NaN,NaN
Gulonic acid,HMDB03290,3.625,2,m,NA,0.4661,-1,OC[C@@H](O)[C@H](O)[C@@H](O)[C@@H](O)C(O)=O,InChIKey=RGHNJXZEOKUKBD-KKQCNMDGSA-N,14.58,-3,NaN,NaN,NaN,NaN,NaN,NaN,NaN,NaN,NaN,NaN,NaN,NaN
Hexanoylcarnitine,HMDB00705,3.625,1,d,14.46,0.0532,0,CCCCCC(=O)OC(CC([O-])=O)C[N+](C)(C)C,InChIKey=VVPRQWTYSNDTEA-UHFFFAOYSA-N,11.39,-6.3,NaN,NaN,NaN,NaN,NaN,NaN,NaN,NaN,NaN,NaN,NaN,NaN
Selenocystine,HMDB04122,3.625,2,dd,14.09 4.62,0.9751,0,NC(C[Se][Se]CC(N)C(O)=O)C(O)=O,InChIKey=JULROCUWKLNBSN-UHFFFAOYSA-N,1.86,-4.8,NaN,NaN,NaN,NaN,NaN,NaN,NaN,NaN,NaN,NaN,NaN,NaN
Sulforaphane,HMDB05792,3.625,2,td,6.26 1.57,0.1223,0,CS(=O)CCCCN=C=S,InChIKey=SUVMJBTUFCVSAD-UHFFFAOYSA-N,1.87,10,NaN,NaN,NaN,NaN,NaN,NaN,NaN,NaN,NaN,NaN,NaN,NaN
Taurodeoxycholic acid,HMDB00896,3.625,1,br. s.,NA,0.1041,-1,[H][C@@]1(CC[C@@]2([H])[C@]3([H])CC[C@]4([H])C[C@H](O)CC[C@]4(C)[C@@]3([H])C[C@H](O)[C@]12C)[C@H](C)CCC(=O)NCCS(O)(=O)=O,InChIKey=AWDRATDZQPNJFN-VAYUFCLWSA-N,1.86,-6.7,NaN,NaN,NaN,NaN,NaN,NaN,NaN,NaN,NaN,NaN,NaN,NaN
Myoinositol,HMDB00211,3.628,33,t,9.702,NA,0,O[C@H]1[C@H](O)[C@@H](O)[C@H](O)[C@H](O)[C@@H]1O,InChIKey=CDAISMWEOUEBRE-GPIVLXJGSA-N,11.92,7.06,NA,52.8,NaN,21.78,132.325,NaN,NaN,NaN,NaN,NaN,NaN,NaN
Dihydrobiopterin,HMDB00038,3.635,1,m,NA,0.1345,0,CC(O)C(O)C1=NC2=C(NC1)N=C(N)NC2=O,InChIKey=FEMXZDUTFRTWPE-UHFFFAOYSA-N,11.25,10.31,0.006,NaN,NaN,NaN,4.00E-04,NaN,NaN,NaN,NaN,NaN,NaN,NaN
L-Octanoylcarnitine,HMDB00791,3.635,1,d,14.46,0.053,0,CCCCCCCC(=O)O[C@H](CC([O-])=O)C[N+](C)(C)C,InChIKey=CXTATJFJDMJMIY-CYBMUJFWSA-N,3.6,3.19,0.1755,NaN,NaN,NaN,NaN,NaN,NaN,NaN,NaN,NaN,NaN,NaN
Decanoylcarnitine,HMDB00651,3.635,1,d,14.37,0.0543,0,CCCCCCCCCC(=O)OC(CC([O-])=O)C[N+](C)(C)C,InChIKey=LZOSYCMHQXPBFU-UHFFFAOYSA-N,5,-6.2,0.2005,NaN,NaN,NaN,NaN,NaN,NaN,NaN,NaN,NaN,NaN,NaN
2-Phenylaminoadenosine,HMDB01069,3.635,1,m,NA,0.0086,0,NC1=C2N=CN(C3OC(CO)C(O)C3O)C2=NC(NC2=CC=CC=C2)=N1,InChIKey=SCNILGOVBBRMBK-UHFFFAOYSA-N,0.9,7.43,NA,NA,NA,NA,NA,NA,NA,NA,NA,NA,NA,NA
3-Deoxyarabinohexonic acid,HMDB00346,3.635,1,m,NA,0.2909,-1,OC[C@@H](O)[C@@H](O)C[C@H](O)C(O)=O,InChIKey=YGMNHEPVTNXLLS-VAYJURFESA-N,4.31,-7.3,NA,NA,NA,NA,NA,NA,NA,NA,NA,NA,NA,NA
Cellobiose,HMDB00055,3.635,8,m,NA,0.4262,0,OC[C@H]1O[C@@H](O[C@H]2[C@H](O)[C@@H](O)[C@H](O)O[C@@H]2CO)[C@H](O)[C@@H](O)[C@@H]1O,InChIKey=GUBGYTABKSRVRQ-QRZGKKJRSA-N,11.7,1.83,NA,NA,NA,NA,NA,NA,NA,NA,NA,NA,NA,NA
Hesperidin,HMDB03265,3.635,1,m,NA,0.0318,0,COC1=CC=C(C=C1O)[C@@H]1CC(=O)C2=C(O1)C=C(OC1O[C@H](CO[C@H]3O[C@@H](C)[C@@H](O)[C@@H](O)[C@H]3O)[C@H](O)[C@H](O)[C@H]1O)C=C2O,InChIKey=QUQPHWDTPGMPEX-UNZJSITISA-N,14.58,-3,NA,NA,NA,NA,NA,NA,NA,NA,NA,NA,NA,NA
D-Maltose,HMDB00163,3.635,2,m,NA,0.9166,0,OC[C@H]1O[C@H](O[C@H]2[C@H](O)[C@H](O)[C@@H](O)O[C@@H]2CO)[C@H](O)[C@@H](O)[C@@H]1O,InChIKey=GUBGYTABKSRVRQ-DKBJLJRDSA-N,7.93,9.34,NaN,NaN,NaN,NaN,NaN,NaN,NaN,NaN,NaN,NaN,NaN,NaN
D-Tagatose,HMDB03418,3.635,1,m,NA,0.378,0,OC[C@@H](O)[C@H](O)[C@H](O)C(=O)CO,InChIKey=BJHIKXHVCXFQLS-PQLUHFTBSA-N,14.58,-3,NaN,NaN,NaN,NaN,NaN,NaN,NaN,NaN,NaN,NaN,NaN,NaN
Isobutyryl-L-carnitine,HMDB00736,3.635,3,d,14.82,0.0394,0,CC(C)C(=O)OC(CC([O-])=O)C[N+](C)(C)C,InChIKey=LRCNOZRCYBNMEP-UHFFFAOYSA-N,3.65,-3,NaN,NaN,NaN,NaN,NaN,NaN,NaN,NaN,NaN,NaN,NaN,NaN