Metabolite,HMDB Name,Shift (ppm),Hs,Type,J (Hz),Height,Physiological Charge,SMILES,InChlKey,pKa (Strongest Acidic),pKa (Strongest Basic),Blood,Urine,Feces,Saliva,Cerebrospinal Fluid (CSF),Amniotic Fluid,Aqueous Humour,Ascites Fluid,Breast Milk,Lymph,Sweat,Tears
L(-)-Nicotine pestanal,HMDB01934,2.595,1,m,NA,0.0671,1,CN1CCC[C@H]1C1=CN=CC=C1,InChIKey=SNICXCGAKADSCV-JTQLQIEISA-N,1.87,10,0.745,NaN,NaN,NaN,NaN,NaN,NaN,NaN,NaN,NaN,NaN,NaN
Delta-Hexanolactone,HMDB00453,2.595,1,m,NA,0.0545,0,CC1CCCC(=O)O1,InChIKey=RZTOWFMDBDPERY-UHFFFAOYSA-N,1.86,5.14,NA,NA,NA,NA,NA,NA,NA,NA,NA,NA,NA,NA
3-Methoxybenzenepropanoic acid,HMDB11751,2.595,16,t,NA,0.1137,-1,COC1=CC(CCC(O)=O)=CC=C1,InChIKey=BJJQJLOZWBZEGA-UHFFFAOYSA-N,1.86,-6.7,NaN,NaN,NaN,NaN,NaN,NaN,NaN,NaN,NaN,NaN,NaN,NaN
Glycyrrhetinic acid,HMDB11628,2.595,1,m,NA,0.0689,-1,CC1(C)[C@@H](O)CC[C@@]2(C)C1CC[C@]1(C)C2C(=O)C=C2C3C[C@](C)(CC[C@]3(C)CC[C@@]12C)C(O)=O,InChIKey=MPDGHEJMBKOTSU-WFJWTYAKSA-N,1.86,-3,NaN,NaN,NaN,NaN,NaN,NaN,NaN,NaN,NaN,NaN,NaN,NaN
Phenylpropionylglycine,HMDB00860,2.595,13,t,7.78,0.4593,-1,OC(=O)CNC(=O)CCC1=CC=CC=C1,InChIKey=YEIQSAXUPKPPBN-UHFFFAOYSA-N,12.42,5.3,NaN,NaN,NaN,NaN,NaN,NaN,NaN,NaN,NaN,NaN,NaN,NaN
Famotidine,HMDB01919,2.599,2,t,7,0.5732,1,NC(=N)NC1=NC(CSCCC(=N)NS(N)(=O)=O)=CS1,InChIKey=XUFQPHANEAPEMJ-UHFFFAOYSA-N,1.73,-5.5,NaN,NaN,NaN,NaN,NaN,NaN,NaN,NaN,NaN,NaN,NaN,NaN
Methylamine,HMDB00164,2.605,3,s,NA,1,1,CN,InChIKey=BAVYZALUXZFZLV-UHFFFAOYSA-N,12.19,-0.53,1,10.5,NaN,91.775,NaN,NaN,NaN,NaN,NaN,NaN,NaN,NaN
Isobutyric acid,HMDB01873,2.605,1,m,NA,0.0753,-1,CC(C)C(O)=O,InChIKey=KQNPFQTWMSNSAP-UHFFFAOYSA-N,14.58,-3,2.3,39,NaN,500.865,1.8,NaN,NaN,NaN,NaN,NaN,NaN,NaN
Isobutyryl-L-carnitine,HMDB00736,2.605,3,d,5.81,0.0486,0,CC(C)C(=O)OC(CC([O-])=O)C[N+](C)(C)C,InChIKey=LRCNOZRCYBNMEP-UHFFFAOYSA-N,3.65,-3,NaN,NaN,NaN,NaN,NaN,NaN,NaN,NaN,NaN,NaN,NaN,NaN
Spermidine,HMDB01257,2.615,5,m,NA,1,3,NCCCCNCCCN,InChIKey=ATHGHQPFGPMSJY-UHFFFAOYSA-N,12.94,-1.4,0.07,0.392,NaN,1.63,0.12,NaN,NaN,NaN,NaN,NaN,NaN,NaN
3-Phenylbutyric acid,HMDB01955,2.615,10,m,NA,0.238,-1,CC(CC(O)=O)C1=CC=CC=C1,InChIKey=ZZEWMYILWXCRHZ-UHFFFAOYSA-N,14.22,10.21,NA,NA,NA,NA,NA,NA,NA,NA,NA,NA,NA,NA
Coenzyme A,HMDB01423,2.615,2,t,6.6,0.492,-4,CC(C)(COP(O)(=O)OP(O)(=O)OC[C@H]1O[C@H]([C@H](O)[C@@H]1OP(O)(O)=O)N1C=NC2=C1N=CN=C2N)C(O)C(=O)NCCC(=O)NCCS,InChIKey=RGJOEKWQDUBAIZ-DRCCLKDXSA-N,16.92,3.22,NA,NA,NA,NA,NA,NA,NA,NA,NA,NA,NA,NA
Deoxyadenosine monophosphate,HMDB00905,2.615,2,m,NA,0.1669,-2,NC1=NC=NC2=C1N=CN2[C@H]1C[C@H](O)[C@@H](COP(O)(O)=O)O1,InChIKey=KHWCHTKSEGGWEX-RRKCRQDMSA-N,0.54,10.77,NA,NA,NA,NA,NA,NA,NA,NA,NA,NA,NA,NA
Imipramine,HMDB01848,2.615,24,s,NA,1,1,CN(C)CCCN1C2=CC=CC=C2CCC2=CC=CC=C12,InChIKey=BCGWQEUPMDMJNV-UHFFFAOYSA-N,2.98,9.73,NA,NA,NA,NA,NA,NA,NA,NA,NA,NA,NA,NA
Deoxyinosine,HMDB00071,2.615,1,ddd,14.10 6.39 3.79,0.0747,0,OC[C@H]1O[C@H](C[C@@H]1O)N1C=NC2=C1N=CN=C2O,InChIKey=VGONTNSXDCQUGY-RRKCRQDMSA-N,3.53,-4.9,NaN,NA,NaN,NaN,NaN,NaN,NaN,NaN,NaN,NaN,NaN,NaN
17a-Ethynylestradiol,HMDB01926,2.625,4,s,NA,0.3912,0,[H][C@@]12CC[C@@](O)(C#C)[C@@]1(C)CC[C@]1([H])C3=CC=C(O)C=C3CC[C@@]21[H],InChIKey=BFPYWIDHMRZLRN-SLHNCBLASA-N,18.38,9.27,0.00016,NaN,NaN,NaN,NaN,NaN,NaN,NaN,NaN,NaN,NaN,NaN
Hydroxypropionic acid,HMDB00700,2.625,3,td,NA,1,-1,OCCC(O)=O,InChIKey=ALRHLSYJTWAHJZ-UHFFFAOYSA-N,11.3,0.18,2.3,NaN,NaN,NaN,NaN,NaN,NaN,NaN,NaN,NaN,NaN,NaN
L-Acetylcarnitine,HMDB00201,2.625,1,dd,NA,0.0404,0,CC(=O)OC(CC([O-])=O)C[N+](C)(C)C,InChIKey=RDHQFKQIGNGIED-UHFFFAOYSA-N,4.95,-2.2,5.48,NaN,NaN,0.973,NaN,NaN,NaN,NaN,NaN,NaN,NaN,NaN
Alpha-Tocopherol,HMDB01893,2.625,1,t,6.75,0.1309,0,CC(C)CCC[C@@H](C)CCC[C@@H](C)CCC[C@]1(C)CCC2=C(O1)C(C)=C(C)C(O)=C2C,InChIKey=GVJHHUAWPYXKBD-IEOSBIPESA-N,10.07,-4.2,30.94,NaN,NaN,0.082,NaN,NaN,NaN,NaN,NaN,NaN,NaN,NaN
Deoxyadenosine triphosphate,HMDB01532,2.625,1,ddd,13.98 6.40 3.85,0.0164,-3,NC1=NC=NC2=C1N=CN2[C@H]1C[C@H](O)[C@@H](COP(O)(=O)OP(O)(=O)OP(O)(O)=O)O1,InChIKey=SUYVUBYJARFZHO-RRKCRQDMSA-N,9.06,-4.2,NA,NA,NA,NA,NA,NA,NA,NA,NA,NA,NA,NA
17-Hydroxyprogesterone,HMDB00374,2.625,4,ddd,14.72 11.66 2.81,0.0729,0,[H][C@@]12CC[C@](O)(C(C)=O)[C@@]1(C)CC[C@@]1([H])[C@@]2([H])CCC2=CC(=O)CC[C@]12C,InChIKey=DBPWSSGDRRHUNT-CEGNMAFCSA-N,7.36,-1.4,NaN,0.0013,NaN,NA,NaN,NaN,NaN,NaN,NaN,NaN,NaN,NaN
Sulforaphane,HMDB05792,2.625,3,s,NA,1,0,CS(=O)CCCCN=C=S,InChIKey=SUVMJBTUFCVSAD-UHFFFAOYSA-N,1.87,10,NaN,NaN,NaN,NaN,NaN,NaN,NaN,NaN,NaN,NaN,NaN,NaN
Methylsuccinic acid,HMDB01844,2.629,1,m,NA,0.1072,-2,CC(CC(O)=O)C(O)=O,InChIKey=WXUAQHNMJWJLTG-UHFFFAOYSA-N,3.9,6.52,NaN,2.15,NaN,8.04,NaN,NaN,NaN,NaN,NaN,NaN,NaN,NaN
2-Methoxyestradiol,HMDB00405,2.635,2,m,NA,0.0598,0,[H][C@@]12CC[C@H](O)[C@@]1(C)CC[C@]1([H])C3=C(CC[C@@]21[H])C=C(O)C(OC)=C3,InChIKey=CQOQDQWUFQDJMK-SSTWWWIQSA-N,4.02,-1.4,0.01,NaN,NaN,NaN,NaN,NaN,NaN,NaN,NaN,NaN,NaN,NaN
L-Octanoylcarnitine,HMDB00791,2.635,2,dq,NA,0.0408,0,CCCCCCCC(=O)O[C@H](CC([O-])=O)C[N+](C)(C)C,InChIKey=CXTATJFJDMJMIY-CYBMUJFWSA-N,3.6,3.19,0.1755,NaN,NaN,NaN,NaN,NaN,NaN,NaN,NaN,NaN,NaN,NaN
Hydroxycobalamin,HMDB02308,2.635,3,s,NA,0.0421,2,[Co++].O.OC[C@H]1O[C@@]([H])([C@H](O)[C@]1([H])OP(=O)([O-])O[C@H](C)CNC(=O)CC[C@]1(C)[C@@H](CC(=O)N)[C@@]2([H])[N-]\C1=C(C)/C1=N/C(=C\C3=N\C(=C(C)/C4=N[C@]2(C)[C@@](C)(CC(=O)N)[C@@H]4CCC(=O)N)\[C@@](C)(CC(=O)N)[C@@H]3CCC(=O)N)/C(C)(C)[C@@H]1CCC(=O)N)N1C=NC2=C1C=C(C)C(C)=C2,InChIKey=DQOCFCZRZOAIBN-WZHZPDAFSA-L,2.45,-1.9,NA,NA,NA,NA,NA,NA,NA,NA,NA,NA,NA,NA
2-Methylbutyroylcarnitine,HMDB00378,2.635,1,m,15.92 7.30 2.86,0.0397,0,CCC(C)C(=O)OC(CC([O-])=O)C[N+](C)(C)C,InChIKey=IHCPDBBYTYJYIL-UHFFFAOYSA-N,1.86,-1.3,NaN,NaN,NaN,NaN,NaN,NaN,NaN,NaN,NaN,NaN,NaN,NaN
6-Hydroxydopamine,HMDB01537,2.635,2,t,NA,0.0394,1,NCCC1=C(O)C=C(O)C(O)=C1,InChIKey=DIVDFFZHCJEHGG-UHFFFAOYSA-N,4.26,-0.19,NaN,NaN,NaN,NaN,NaN,NaN,NaN,NaN,NaN,NaN,NaN,NaN
Brompheniramine,HMDB01941,2.635,4,m,NA,0.0345,1,CN(C)CCC(C1=CC=C(Br)C=C1)C1=CC=CC=N1,InChIKey=ZDIGNSYAACHWNL-UHFFFAOYSA-N,2.58,9.64,NaN,NaN,NaN,NaN,NaN,NaN,NaN,NaN,NaN,NaN,NaN,NaN
Ethyl isopropyl ketone,HMDB05846,2.635,2,q,NA,0.1289,0,CCC(=O)C(C)C,InChIKey=HYTRYEXINDDXJK-UHFFFAOYSA-N,1.87,10,NaN,NaN,NaN,NaN,NaN,NaN,NaN,NaN,NaN,NaN,NaN,NaN
Selenomethionine,HMDB03966,2.635,2,m,NA,0.1373,0,C[Se]CCC(N)C(O)=O,InChIKey=RJFAYQIBOAGBLC-UHFFFAOYSA-N,1.86,-6.7,NaN,NaN,NaN,NaN,NaN,NaN,NaN,NaN,NaN,NaN,NaN,NaN
Venlafaxine,HMDB05016,2.635,3,br. s.,NA,0.0515,1,COC1=CC=C(C=C1)C(CN(C)C)C1(O)CCCCC1,InChIKey=PNVNVHUZROJLTJ-UHFFFAOYSA-N,1.87,10,NaN,NaN,NaN,NaN,NaN,NaN,NaN,NaN,NaN,NaN,NaN,NaN
Pregnenolone sulfate,HMDB00774,2.645,1,t,NA,0.0124,-1,[H][C@@]12CC[C@H](C(C)=O)[C@@]1(C)CC[C@@]1([H])[C@@]2([H])CC=C2CC(CC[C@]12C)OS(O)(=O)=O,InChIKey=DIJBBUIOWGGQOP-OZIWPBGVSA-N,-0.99,5.01,0.13,NaN,NaN,NaN,NaN,NaN,NaN,NaN,NaN,NaN,NaN,NaN
Levofloxacin,HMDB01929,2.645,4,br. s.,NA,0.0976,-1,C[C@H]1COC2=C(N3CCN(C)CC3)C(F)=CC3=C2N1C=C(C(O)=O)C3=O,InChIKey=GSDSWSVVBLHKDQ-JTQLQIEISA-N,3.51,-6.3,0.135,NaN,NaN,NaN,NaN,NaN,NaN,NaN,NaN,NaN,NaN,NaN
Chlorpheniramine,HMDB01944,2.645,1,m,NA,0.0321,1,CN(C)CCC(C1=CC=C(Cl)C=C1)C1=CC=CC=N1,InChIKey=SOYKEARSMXGVTM-UHFFFAOYSA-N,1.87,10,NA,NA,NA,NA,NA,NA,NA,NA,NA,NA,NA,NA
Ethenodeoxyadenosine,HMDB01786,2.645,1,ddd,NA,0.136,0,OC[C@H]1O[C@H](C[C@@H]1O)N1C=NC2=C1N=CN1C=CN=C21,InChIKey=XQQIMTUYVDUWKJ-DJLDLDEBSA-N,7.67,4.94,NA,NA,NA,NA,NA,NA,NA,NA,NA,NA,NA,NA
Norspermidine,HMDB11634,2.645,33,t,NA,0.6209,3,NCCCNCCCN,InChIKey=OTBHHUPVCYLGQO-UHFFFAOYSA-N,1.86,-3,NA,NA,NA,NA,NA,NA,NA,NA,NA,NA,NA,NA
2-Hydroxyestrone,HMDB00343,2.645,2,m,NA,0.0817,0,[H][C@@]12CCC(=O)[C@@]1(C)CC[C@]1([H])C3=C(CC[C@@]21[H])C=C(O)C(O)=C3,InChIKey=SWINWPBPEKHUOD-JPVZDGGYSA-N,4,-2.8,NaN,NaN,NaN,NaN,NaN,NaN,NaN,NaN,NaN,NaN,NaN,NaN
Gamma-Caprolactone,HMDB03843,2.645,3,m,NA,0.2481,0,CCC1CCC(=O)O1,InChIKey=JBFHTYHTHYHCDJ-UHFFFAOYSA-N,14.58,-3,NaN,NaN,NaN,NaN,NaN,NaN,NaN,NaN,NaN,NaN,NaN,NaN
Hexanoylcarnitine,HMDB00705,2.645,1,dd,15.60 5.44,0.0409,0,CCCCCC(=O)OC(CC([O-])=O)C[N+](C)(C)C,InChIKey=VVPRQWTYSNDTEA-UHFFFAOYSA-N,11.39,-6.3,NaN,NaN,NaN,NaN,NaN,NaN,NaN,NaN,NaN,NaN,NaN,NaN
S-Adenosylhomocysteine,HMDB00939,2.645,2,t,7.73,0.4963,0,N[C@@H](CCSC[C@H]1O[C@H]([C@H](O)[C@@H]1O)N1C=NC2=C(N)N=CN=C12)C(O)=O,InChIKey=ZJUKTBDSGOFHSH-WFMPWKQPSA-N,9.43,1.41,NaN,NaN,NaN,NaN,0.01,NaN,NaN,NaN,NaN,NaN,NaN,NaN
L-Methionine,HMDB00696,2.646,13,t,7.587,NA,0,CSCC[C@H](N)C(O)=O,InChIKey=FFEARJCKVFRZRR-BYPYZUCNSA-N,9.99,-3,29.4,1.35075,NaN,8.81,3.4675,NaN,NaN,NaN,NaN,NaN,NaN,NaN
Azythromycin,HMDB01916,2.655,2,m,NA,0.0242,2,CC[C@@H]1OC(=O)[C@H](C)[C@@H](O[C@@H]2C[C@](C)(OC)[C@H](O)[C@@H](C)O2)[C@@H](C)[C@H](O[C@H]2O[C@@H](C)C[C@H]([C@@H]2O)N(C)C)[C@@](C)(O)C[C@H](C)CN(C)[C@@H](C)[C@@H](O)[C@]1(C)O,InChIKey=MQTOSJVFKKJCRP-HHZDEWPHSA-N,3.84,1.99,NA,NA,NA,NA,NA,NA,NA,NA,NA,NA,NA,NA
2-Methoxyestrone,HMDB00010,2.655,2,m,NA,0.0366,0,[H][C@@]12CCC(=O)[C@@]1(C)CC[C@]1([H])C3=C(CC[C@@]21[H])C=C(O)C(OC)=C3,InChIKey=WHEUWNKSCXYKBU-QPWUGHHJSA-N,1.87,10,NaN,0.005,NaN,NaN,NaN,NaN,NaN,NaN,NaN,NaN,NaN,NaN
Isobutyryl-L-carnitine,HMDB00736,2.655,5,m,NA,0.0418,0,CC(C)C(=O)OC(CC([O-])=O)C[N+](C)(C)C,InChIKey=LRCNOZRCYBNMEP-UHFFFAOYSA-N,3.65,-3,NaN,NaN,NaN,NaN,NaN,NaN,NaN,NaN,NaN,NaN,NaN,NaN
(S)-3-Hydroxyisobutyric acid,HMDB00023,2.664,10,m,NA,NA,-1,C[C@@H](CO)C(O)=O,InChIKey=DBXBTMSZEOQQDU-VKHMYHEASA-N,8.89,9.8,NaN,11,NaN,1.23,NaN,NaN,NaN,NaN,NaN,NaN,NaN,NaN
Cotinine,HMDB01046,2.665,3,m,NA,1,0,CN1C(CCC1=O)C1=CN=CC=C1,InChIKey=UIKROCXWUNQSPJ-UHFFFAOYSA-N,1.68,-0.81,1.4,NaN,NaN,NA,NaN,NaN,NaN,NaN,NaN,NaN,NaN,NaN
Homocysteine,HMDB00742,2.665,2,ddd,10.73 8.12 6.73,0.4842,0,NC(CCS)C(O)=O,InChIKey=FFFHZYDWPBMWHY-UHFFFAOYSA-N,12.58,4.46,9.596666667,NaN,NaN,4.76,NaN,NaN,NaN,NaN,NaN,NaN,NaN,NaN
Ketoleucine,HMDB00695,2.665,2,d,7,0.4083,-1,CC(C)CC(=O)C(O)=O,InChIKey=BKAJNAXTPSGJCU-UHFFFAOYSA-N,1.72,-0.77,30.75,NaN,NaN,NaN,5,NaN,NaN,NaN,NaN,NaN,NaN,NaN
Citric acid,HMDB00094,2.665,48,d,15.16,0.9238,-3,OC(=O)CC(O)(CC(O)=O)C(O)=O,InChIKey=KRKNYBCHXYNGOX-UHFFFAOYSA-N,15.61,-5.9,130.7333333,261.0871429,NaN,28.5,257,NaN,NaN,NaN,NaN,NaN,NaN,NaN
Hydroxycobalamin,HMDB02308,2.665,3,m,NA,0.0392,2,[Co++].O.OC[C@H]1O[C@@]([H])([C@H](O)[C@]1([H])OP(=O)([O-])O[C@H](C)CNC(=O)CC[C@]1(C)[C@@H](CC(=O)N)[C@@]2([H])[N-]\C1=C(C)/C1=N/C(=C\C3=N\C(=C(C)/C4=N[C@]2(C)[C@@](C)(CC(=O)N)[C@@H]4CCC(=O)N)\[C@@](C)(CC(=O)N)[C@@H]3CCC(=O)N)/C(C)(C)[C@@H]1CCC(=O)N)N1C=NC2=C1C=C(C)C(C)=C2,InChIKey=DQOCFCZRZOAIBN-WZHZPDAFSA-L,2.45,-1.9,NA,NA,NA,NA,NA,NA,NA,NA,NA,NA,NA,NA
(R)-3-Hydroxyisobutyric acid,HMDB00336,2.665,1,m,NA,0.1242,-1,C[C@H](CO)C(O)=O,InChIKey=DBXBTMSZEOQQDU-GSVOUGTGSA-N,4.48,-7,NaN,NaN,NaN,NaN,6,NaN,NaN,NaN,NaN,NaN,NaN,NaN
Alpha-Aspartyl-lysine,HMDB04987,2.665,7,dd,17.18 9.04,0.3365,0,NCCCC[C@H](NC(=O)[C@@H](N)CC(O)=O)C(O)=O,InChIKey=OAMLVOVXNKILLQ-BQBZGAKWSA-N,1.87,10,NaN,NaN,NaN,NaN,NaN,NaN,NaN,NaN,NaN,NaN,NaN,NaN
Ureidosuccinic acid,HMDB00828,2.665,0,d,3.85,0.4609,-2,NC(=O)N[C@@H](CC(O)=O)C(O)=O,InChIKey=HLKXYZVTANABHZ-REOHCLBHSA-N,10.97,7.84,NaN,NaN,NaN,NaN,NaN,NaN,NaN,NaN,NaN,NaN,NaN,NaN
Mevalonic acid,HMDB00227,2.672,2,m,NA,0.0086,-1,CC(O)(CCO)CC(O)=O,InChIKey=KJTLQQUUPVSXIM-UHFFFAOYSA-N,3.44,-2.9,0.028,0.217775,NaN,NaN,NaN,NaN,NaN,NaN,NaN,NaN,NaN,NaN
L-Malic acid,HMDB00156,2.675,1,dd,15.37 2.99,1,-2,O[C@@H](CC(O)=O)C(O)=O,InChIKey=BJEPYKJPYRNKOW-REOHCLBHSA-N,10.02,4.96,7.6,1.71,NaN,6.45,3,NaN,NaN,NaN,NaN,NaN,NaN,NaN
L-Aspartic acid,HMDB00191,2.675,2,dd,17.45,1,-1,N[C@@H](CC(O)=O)C(O)=O,InChIKey=CKLJMWTZIZZHCS-REOHCLBHSA-N,1.09,0.078,20.9,3.446,NaN,NA,1.33,NaN,NaN,NaN,NaN,NaN,NaN,NaN
L-Aspartic acid,HMDB00191,2.675,2,dd,8.85,1,-1,N[C@@H](CC(O)=O)C(O)=O,InChIKey=CKLJMWTZIZZHCS-REOHCLBHSA-N,1.09,0.078,20.9,3.446,NaN,NA,1.33,NaN,NaN,NaN,NaN,NaN,NaN,NaN
2.2-Dimethylsuccinic acid,HMDB02074,2.675,1,s,NA,0.3501,-2,CC(C)(CC(O)=O)C(O)=O,InChIKey=GOHPTLYPQCTZSE-UHFFFAOYSA-N,10.94,-1.9,NA,NA,NA,NA,NA,NA,NA,NA,NA,NA,NA,NA
Phosphonoacetate,HMDB04110,2.675,2,d,NA,0.8468,-2,OC(=O)CP(O)(O)=O,InChIKey=XUYJLQHKOGNDPB-UHFFFAOYSA-N,1.86,-6.7,NA,NA,NA,NA,NA,NA,NA,NA,NA,NA,NA,NA
Hypotaurine,HMDB00965,2.675,2,t,6.93,0.9079,0,NCCS(O)=O,InChIKey=VVIUBCNYACGLLV-UHFFFAOYSA-N,1.87,3.19,NaN,NaN,NaN,NaN,NaN,NaN,NaN,NaN,NaN,NaN,NaN,NaN
Malic acid,HMDB00744,2.675,1,dd,15.36 2.95,1,-2,OC(CC(O)=O)C(O)=O,InChIKey=BJEPYKJPYRNKOW-UHFFFAOYSA-N,1.23,-0.58,NaN,0,NaN,5.12,NaN,NaN,NaN,NaN,NaN,NaN,NaN,NaN
Mevalonolactone,HMDB06024,2.675,2,m,NA,0.2509,0,C[C@]1(O)CCOC(=O)C1,InChIKey=JYVXNLLUYHCIIH-LURJTMIESA-N,1.86,-3,NaN,NaN,NaN,NaN,NaN,NaN,NaN,NaN,NaN,NaN,NaN,NaN
Dihydrouracil,HMDB00076,2.685,2,t,6.99,1,0,O=C1CCNC(=O)N1,InChIKey=OIVLITBTBDPEFK-UHFFFAOYSA-N,2.31,-3.3,0.31,0.79,NaN,2168.16,NaN,NaN,NaN,NaN,NaN,NaN,NaN,NaN
17-Epiestriol,HMDB00356,2.685,2,m,NA,0.1115,0,C[C@]12CCC3C(CCC4=C3C=CC(O)=C4)C1C[C@@H](O)[C@H]2O,InChIKey=PROQIPRRNZUXQM-MAHASAQBSA-N,4.09,-3.5,NA,NA,NA,NA,NA,NA,NA,NA,NA,NA,NA,NA
Medroxyprogesterone,HMDB01939,2.685,1,m,NA,0.0179,0,[H][C@@]12CC[C@](O)(C(C)=O)[C@@]1(C)CC[C@@]1([H])[C@@]2([H])C[C@H](C)C2=CC(=O)CC[C@]12C,InChIKey=FRQMUZJSZHZSGN-HBNHAYAOSA-N,4.94,1.15,NA,NA,NA,NA,NA,NA,NA,NA,NA,NA,NA,NA
2-Isopropylmalic acid,HMDB00402,2.685,1,d,NA,0.2469,-2,CC(C)[C@@](O)(CC(O)=O)C(O)=O,InChIKey=BITYXLXUCSKTJS-ZETCQYMHSA-N,5.02,-6.8,NaN,NaN,NaN,NaN,NaN,NaN,NaN,NaN,NaN,NaN,NaN,NaN
Ureidosuccinic acid,HMDB00828,2.685,1,d,3.85,0.3516,-2,NC(=O)N[C@@H](CC(O)=O)C(O)=O,InChIKey=HLKXYZVTANABHZ-REOHCLBHSA-N,10.97,7.84,NaN,NaN,NaN,NaN,NaN,NaN,NaN,NaN,NaN,NaN,NaN,NaN
Estriol,HMDB00153,2.695,2,m,NA,0.1151,0,[H][C@@]12C[C@@H](O)[C@H](O)[C@@]1(C)CC[C@]1([H])C3=C(CC[C@@]21[H])C=C(O)C=C3,InChIKey=PROQIPRRNZUXQM-ZXXIGWHRSA-N,2.84,5.54,0.006,NaN,NaN,NaN,NaN,0.0023,NaN,NaN,NaN,NaN,NaN,NaN
Spermine,HMDB01256,2.695,16,m,NA,1,4,NCCCNCCCCNCCCN,InChIKey=PFNFFQXMRSDOHW-UHFFFAOYSA-N,4.81,-2.2,0.03,0.076333333,NaN,0.335,0.14,NaN,NaN,NaN,NaN,NaN,NaN,NaN
Carnosine,HMDB00033,2.695,1,dt,11.04,0.2407,0,NCCC(=O)N[C@@H](CC1=CN=CN1)C(O)=O,InChIKey=CQOVPNPJLQNMDC-ZETCQYMHSA-N,1.86,8.86,6.54,1.84,NaN,NaN,NaN,NaN,NaN,NaN,NaN,NaN,NaN,NaN
Carnosine,HMDB00033,2.695,1,dt,7.74,0.2407,0,NCCC(=O)N[C@@H](CC1=CN=CN1)C(O)=O,InChIKey=CQOVPNPJLQNMDC-ZETCQYMHSA-N,1.86,8.86,6.54,1.84,NaN,NaN,NaN,NaN,NaN,NaN,NaN,NaN,NaN,NaN
Anserine,HMDB00194,2.695,2,m,NA,0.1246,0,CN1C=NC=C1C[C@H](NC(=O)CCN)C(O)=O,InChIKey=MYYIAHXIVFADCU-QMMMGPOBSA-N,0.9,-3.6,41,NA,NaN,NaN,NaN,NaN,NaN,NaN,NaN,NaN,NaN,NaN
Benzenebutanoic acid,HMDB00543,2.695,2,t,7.62,0.7074,-1,OC(=O)CCCC1=CC=CC=C1,InChIKey=OBKXEAXTFZPCHS-UHFFFAOYSA-N,3.47,8.99,NA,NA,NA,NA,NA,NA,NA,NA,NA,NA,NA,NA
16b-Hydroxyestradiol,HMDB00347,2.695,2,m,NA,0.0623,0,[H][C@@]12C[C@H](O)[C@H](O)[C@@]1(C)CC[C@]1([H])C3=C(CC[C@@]21[H])C=C(O)C=C3,InChIKey=PROQIPRRNZUXQM-ZMSHIADSSA-N,11.47,-3.8,NaN,NaN,NaN,NaN,NaN,NaN,NaN,NaN,NaN,NaN,NaN,NaN
2-Methylbutyroylcarnitine,HMDB00378,2.695,1,m,15.95 5.62 3.69,0.0374,0,CCC(C)C(=O)OC(CC([O-])=O)C[N+](C)(C)C,InChIKey=IHCPDBBYTYJYIL-UHFFFAOYSA-N,1.86,-1.3,NaN,NaN,NaN,NaN,NaN,NaN,NaN,NaN,NaN,NaN,NaN,NaN
3-(3-Hydroxyphenyl)-3-hydroxypropanoic acid,HMDB02643,2.695,2,m,NA,0.5119,-1,OC(CC(O)=O)C1=CC(O)=CC=C1,InChIKey=KHTAGVZHYUZYMF-UHFFFAOYSA-N,8.27,-2.8,NaN,8.275,NaN,NaN,NaN,NaN,NaN,NaN,NaN,NaN,NaN,NaN
Aspartame,HMDB01894,2.695,2,m,NA,0.1119,0,COC(=O)[C@H](CC1=CC=CC=C1)NC(=O)[C@@H](N)CC(O)=O,InChIKey=IAOZJIPTCAWIRG-QWRGUYRKSA-N,13.45,-2.7,NaN,NaN,NaN,NaN,NaN,NaN,NaN,NaN,NaN,NaN,NaN,NaN
Cadaverine,HMDB02322,2.695,4,t,7.21,1,2,NCCCCCN,InChIKey=VHRGRCVQAFMJIZ-UHFFFAOYSA-N,2.8,-7,NaN,0.229,NaN,NaN,NaN,NaN,NaN,NaN,NaN,NaN,NaN,NaN
Estradiol,HMDB00151,2.695,2,m,NA,0.0779,0,[H][C@@]12CC[C@H](O)[C@@]1(C)CC[C@]1([H])C3=C(CC[C@@]21[H])C=C(O)C=C3,InChIKey=VOXZDWNPVJITMN-ZBRFXRBCSA-N,1.86,-6.7,NaN,NaN,NaN,NA,NaN,NaN,NaN,NaN,NaN,NaN,NaN,NaN
Naringenin,HMDB02670,2.695,0,dd,NA,0.0224,0,OC1=CC=C(C=C1)[C@@H]1CC(=O)C2=C(O)C=C(O)C=C2O1,InChIKey=FTVWIRXFELQLPI-ZDUSSCGKSA-N,18.2,9.79,NaN,NaN,NaN,NaN,NaN,NaN,NaN,NaN,NaN,NaN,NaN,NaN
Tetrahydrocortisone,HMDB00903,2.695,1,m,NA,0.0022,0,[H][C@@]12CC[C@](O)(C(=O)CO)[C@@]1(C)CC(=O)[C@@]1([H])[C@@]2([H])CC[C@@]2([H])C[C@@H](O)CC[C@]12C,InChIKey=SYGWGHVTLUBCEM-SDYDLROXSA-N,15.56,10.9,NaN,0.51,NaN,NaN,NaN,NaN,NaN,NaN,NaN,NaN,NaN,NaN
L-Palmitoylcarnitine,HMDB00222,2.705,4,d,6.41,0.0828,0,CCCCCCCCCCCCCCCC(=O)O[C@H](CC([O-])=O)C[N+](C)(C)C,InChIKey=XOMRRQXKHMYMOC-OAQYLSRUSA-N,1.62,-0.58,0.113,0.5,NaN,0.034,NaN,NaN,NaN,NaN,NaN,NaN,NaN,NaN
3-Phenylbutyric acid,HMDB01955,2.705,8,m,NA,0.2301,-1,CC(CC(O)=O)C1=CC=CC=C1,InChIKey=ZZEWMYILWXCRHZ-UHFFFAOYSA-N,14.22,10.21,NA,NA,NA,NA,NA,NA,NA,NA,NA,NA,NA,NA
Norspermidine,HMDB11634,2.705,35,t,7.21,1,3,NCCCNCCCN,InChIKey=OTBHHUPVCYLGQO-UHFFFAOYSA-N,1.86,-3,NA,NA,NA,NA,NA,NA,NA,NA,NA,NA,NA,NA
Dimethylamine,HMDB00087,2.71,3,s,NA,1,1,CNC,InChIKey=ROSDSFDQCJNGOL-UHFFFAOYSA-N,3.77,0.019,23.94666667,24.9375,NaN,71.91,2,NaN,NaN,NaN,NaN,NaN,NaN,NaN
N-Acetylaspartylglutamic acid,HMDB01067,2.715,1,dd,NA,0.1037,-3,CC(=O)NC(CC(O)=O)C(=O)NC(CCC(O)=O)C(O)=O,InChIKey=OPVPGKGADVGKTG-UHFFFAOYSA-N,0.83,4.95,4.89,NaN,NaN,NaN,3.375,NaN,NaN,NaN,NaN,NaN,NaN,NaN
Ondansetron,HMDB05035,2.715,3,s,NA,0.2814,1,CN1C2=C(C3=CC=CC=C13)C(=O)C(CN1C=CN=C1C)CC2,InChIKey=FELGMEQIXOGIFQ-UHFFFAOYSA-N,1.87,10,NA,NA,NA,NA,NA,NA,NA,NA,NA,NA,NA,NA
16a-Hydroxyestrone,HMDB00335,2.715,2,m,NA,0.0319,0,[H][C@@]12C[C@@H](O)C(=O)[C@@]1(C)CC[C@]1([H])C3=C(CC[C@@]21[H])C=C(O)C=C3,InChIKey=WPOCIZJTELRQMF-QFXBJFAPSA-N,4.48,9.66,NaN,NaN,NaN,NaN,NaN,NaN,NaN,NaN,NaN,NaN,NaN,NaN
17-Hydroxyprogesterone,HMDB00374,2.715,3,s,NA,0.1508,0,[H][C@@]12CC[C@](O)(C(C)=O)[C@@]1(C)CC[C@@]1([H])[C@@]2([H])CCC2=CC(=O)CC[C@]12C,InChIKey=DBPWSSGDRRHUNT-CEGNMAFCSA-N,7.36,-1.4,NaN,0.0013,NaN,NA,NaN,NaN,NaN,NaN,NaN,NaN,NaN,NaN
N-Acetyl-L-aspartic acid,HMDB00812,2.715,6,dd,15.66 3.79,0.0271,-2,CC(=O)N[C@@H](CC(O)=O)C(O)=O,InChIKey=OTCCIMWXFLJLIA-BYPYZUCNSA-N,2.94,-3.6,NaN,0.4,NaN,NaN,0.81,NaN,NaN,NaN,NaN,NaN,NaN,NaN
Sphinganine,HMDB00269,2.725,1,m,NA,0.0113,1,CCCCCCCCCCCCCCC[C@@H](O)[C@@H](N)CO,InChIKey=OTKJDMGTUTTYMP-ZWKOTPCHSA-N,18.3,-2.4,0.011,0.00023,NaN,NaN,NaN,NaN,NaN,NaN,NaN,NaN,NaN,NaN
Stearoylcarnitine,HMDB00848,2.725,2,ddd,NA,0.0119,0,CCCCCCCCCCCCCCCCCC(=O)OC(CC([O-])=O)C[N+](C)(C)C,InChIKey=FNPHNLNTJNMAEE-UHFFFAOYSA-N,0.83,5,0.06,NaN,NaN,NaN,NaN,NaN,NaN,NaN,NaN,NaN,NaN,NaN
L-Hexanoylcarnitine,HMDB00756,2.725,2,ddd,NA,0.0384,0,CCCCCC(=O)O[C@H](CC([O-])=O)C[N+](C)(C)C,InChIKey=VVPRQWTYSNDTEA-LLVKDONJSA-N,4.17,-3.3,0.08,NaN,NaN,NaN,NaN,NaN,NaN,NaN,NaN,NaN,NaN,NaN
Succinylacetone,HMDB00635,2.725,1,t,6.45,0.336,-1,CC(=O)CC(=O)CCC(O)=O,InChIKey=WYEPBHZLDUPIOD-UHFFFAOYSA-N,4.02,-1.4,0.0815,NaN,NaN,NaN,NaN,0.003,NaN,NaN,NaN,NaN,NaN,NaN
Cysteamine,HMDB02991,2.725,2,br. s.,NA,0.4932,1,NCCS,InChIKey=UFULAYFCSOUIOV-UHFFFAOYSA-N,0.89,-1.3,NaN,NaN,NaN,NaN,NaN,NaN,NaN,NaN,NaN,NaN,NaN,NaN
L-Cystathionine,HMDB00099,2.735,2,m,6.61 4.49 2.20,0.4695,0,N[C@@H](CCSC[C@H](N)C(O)=O)C(O)=O,InChIKey=ILRYLPWNYFXEMH-WHFBIAKZSA-N,14.58,-3,0.2275,1.69,NaN,NaN,NaN,NaN,NaN,NaN,NaN,NaN,NaN,NaN
Allocystathionine,HMDB00455,2.735,2,m,11.75 5.05 3.35 3.16,0.6083,0,N[C@@H](CCSCC(N)C(O)=O)C(O)=O,InChIKey=ILRYLPWNYFXEMH-ROLXFIACSA-N,11.7,-3,NA,NA,NA,NA,NA,NA,NA,NA,NA,NA,NA,NA
Danazol,HMDB02835,2.735,1,d,15.9,0.1445,0,[H][C@@]12CC[C@@](O)(C#C)[C@@]1(C)CC[C@@]1([H])[C@@]2([H])CCC2=CC3=C(C[C@]12C)C=NO3,InChIKey=POZRVZJJTULAOH-LHZXLZLDSA-N,2.89,-3.5,NA,NA,NA,NA,NA,NA,NA,NA,NA,NA,NA,NA
2-Ketohexanoic acid,HMDB01864,2.735,22,t,7.3,0.6775,-1,CCCCC(=O)C(O)=O,InChIKey=XNIHZNNZJHYHLC-UHFFFAOYSA-N,19.55,4.95,NaN,NaN,NaN,NaN,NaN,NaN,NaN,NaN,NaN,NaN,NaN,NaN
Sphingosine,HMDB00252,2.745,1,m,NA,0.0429,1,CCCCCCCCCCCCC\C=C\C(O)C(N)CO,InChIKey=WWUZIQQURGPMPG-CCEZHUSRSA-N,10.33,-2.7,0.05,3.85E-05,NaN,NaN,NaN,NaN,NaN,NaN,NaN,NaN,NaN,NaN
D-threo-Isocitric acid,HMDB01874,2.745,2,dd,17.29 5.22,1,-3,O[C@H]([C@H](CC(O)=O)C(O)=O)C(O)=O,InChIKey=ODBLHEXUDAPZAU-ZAFYKAAXSA-N,2.67,4.95,NaN,NaN,NaN,NaN,NaN,NaN,NaN,NaN,NaN,NaN,NaN,NaN
Ethyl isopropyl ketone,HMDB05846,2.745,1,m,NA,0.0381,0,CCC(=O)C(C)C,InChIKey=HYTRYEXINDDXJK-UHFFFAOYSA-N,1.87,10,NaN,NaN,NaN,NaN,NaN,NaN,NaN,NaN,NaN,NaN,NaN,NaN
Oleanolic acid,HMDB02364,2.745,1,m,NA,0.0361,-1,[H][C@@]12CC(C)(C)CC[C@@]1(CC[C@]1(C)C2=CC[C@]2([H])[C@@]3(C)CC[C@H](O)C(C)(C)[C@]3([H])CC[C@@]12C)C(O)=O,InChIKey=MIJYXULNPSFWEK-GTOFXWBISA-N,3.81,10,NaN,NaN,NaN,NaN,NaN,NaN,NaN,NaN,NaN,NaN,NaN,NaN