Metabolite,HMDB Name,Shift (ppm),Hs,Type,J (Hz),Height,Physiological Charge,SMILES,InChlKey,pKa (Strongest Acidic),pKa (Strongest Basic),Blood,Urine,Feces,Saliva,Cerebrospinal Fluid (CSF),Amniotic Fluid,Aqueous Humour,Ascites Fluid,Breast Milk,Lymph,Sweat,Tears
Epitestosterone,HMDB00628,1.825,1,m,NA,0.0217,0,[H][C@@]12CC[C@@H](O)[C@@]1(C)CC[C@@]1([H])[C@@]2([H])CCC2=CC(=O)CC[C@]12C,InChIKey=MUMGGOZAMZWBJJ-KZYORJDKSA-N,3.89,4.89,NaN,NaN,NaN,NaN,NaN,NaN,NaN,NaN,NaN,NaN,NaN,NaN
Oleanolic acid,HMDB02364,1.825,2,d,8.58,0.0705,-1,[H][C@@]12CC(C)(C)CC[C@@]1(CC[C@]1(C)C2=CC[C@]2([H])[C@@]3(C)CC[C@H](O)C(C)(C)[C@]3([H])CC[C@@]12C)C(O)=O,InChIKey=MIJYXULNPSFWEK-GTOFXWBISA-N,3.81,10,NaN,NaN,NaN,NaN,NaN,NaN,NaN,NaN,NaN,NaN,NaN,NaN
Aminoadipic acid,HMDB00510,1.827,2,m,NA,0.9712,-1,NC(CCCC(O)=O)C(O)=O,InChIKey=OYIFNHCXNCRBQI-UHFFFAOYSA-N,7.6,-3.8,2,4.6,NaN,NaN,NaN,NaN,NaN,NaN,NaN,NaN,NaN,NaN
Etiocholanolone,HMDB00490,1.835,1,dt,NA,0.0561,0,[H][C@@]12CCC(=O)[C@@]1(C)CC[C@@]1([H])[C@@]2([H])CC[C@]2([H])C[C@H](O)CC[C@]12C,InChIKey=QGXBDMJGAMFCBF-BNSUEQOYSA-N,3.89,9.5,0.0013,NaN,NaN,NaN,NaN,NaN,NaN,NaN,NaN,NaN,NaN,NaN
N-Acetylneuraminic acid,HMDB00230,1.835,1,t,NA,0.0847,-1,CC(=O)N[C@@H]1[C@@H](O)C[C@](O)(O[C@H]1[C@H](O)[C@H](O)CO)C(O)=O,InChIKey=SQVRNKJHWKZAKO-PFQGKNLYSA-N,2.89,6.96,0.57,8.6,NaN,NaN,11.9,NaN,NaN,NaN,NaN,NaN,NaN,NaN
Cholesterol,HMDB00067,1.835,7,m,NA,0.1638,0,[H][C@@]12CC[C@H]([C@H](C)CCCC(C)C)[C@@]1(C)CC[C@@]1([H])[C@@]2([H])CC=C2CC(O)CC[C@]12C,InChIKey=HVYWMOMLDIMFJA-FNOPAARDSA-N,3.17,-0.54,3567.92,NaN,NaN,NA,6.31,NaN,NaN,NaN,NaN,NaN,NaN,NaN
Pteroyltriglutamic acid,HMDB01902,1.835,2,m,NA,0.0473,-4,NC1=NC(=O)C2=NC(CNC3=CC=C(C=C3)C(=O)NC(CCC(=O)NC(CCC(=O)NC(CCC(O)=O)C(O)=O)C(O)=O)C(O)=O)=CN=C2N1,InChIKey=WOLQREOUPKZMEX-UHFFFAOYSA-N,13.42,-0.26,NA,NA,NA,NA,NA,NA,NA,NA,NA,NA,NA,NA
Alpha-Aspartyl-lysine,HMDB04987,1.835,1,m,NA,0.1497,0,NCCCC[C@H](NC(=O)[C@@H](N)CC(O)=O)C(O)=O,InChIKey=OAMLVOVXNKILLQ-BQBZGAKWSA-N,1.87,10,NaN,NaN,NaN,NaN,NaN,NaN,NaN,NaN,NaN,NaN,NaN,NaN
Ergocalciferol,HMDB00900,1.835,1,m,NA,0.0081,0,CC(C)[C@@H](C)\C=C\[C@@H](C)[C@H]1CC[C@@]2([H])\C(CCC[C@]12C)=C\C=C1\C[C@@H](O)CCC1=C,InChIKey=MECHNRXZTMCUDQ-RKHKHRCZSA-N,3.25,-6.3,NaN,NaN,NaN,0.008,NaN,NaN,NaN,NaN,NaN,NaN,NaN,NaN
Estradiol,HMDB00151,1.835,2,m,NA,0.0516,0,[H][C@@]12CC[C@H](O)[C@@]1(C)CC[C@]1([H])C3=C(CC[C@@]21[H])C=C(O)C=C3,InChIKey=VOXZDWNPVJITMN-ZBRFXRBCSA-N,1.86,-6.7,NaN,NaN,NaN,NA,NaN,NaN,NaN,NaN,NaN,NaN,NaN,NaN
Nutriacholic acid,HMDB00467,1.835,7,m,NA,0.124,-1,[H][C@@]12CCC([C@@H](C)CCC(O)=O)[C@@]1(C)CC[C@@]1([H])[C@@]2([H])C(=O)C[C@]2([H])C[C@H](O)CC[C@]12C,InChIKey=DXOCDBGWDZAYRQ-QPVZPPSOSA-N,3.78,-0.78,NaN,NaN,NaN,NaN,NaN,NaN,NaN,NaN,NaN,NaN,NaN,NaN
S-Adenosylhomocysteine,HMDB00939,1.835,1,m,NA,0.1436,0,N[C@@H](CCSC[C@H]1O[C@H]([C@H](O)[C@@H]1O)N1C=NC2=C(N)N=CN=C12)C(O)=O,InChIKey=ZJUKTBDSGOFHSH-WFMPWKQPSA-N,9.43,1.41,NaN,NaN,NaN,NaN,0.01,NaN,NaN,NaN,NaN,NaN,NaN,NaN
Ornithine,HMDB00214,1.841,2,m,NA,0.1373,1,NCCC[C@H](N)C(O)=O,InChIKey=AHLPHDHHMVZTML-BYPYZUCNSA-N,1.87,10,81.175,1.39588,NaN,NA,4.285,NaN,NaN,NaN,NaN,NaN,NaN,NaN
2-Methoxyestradiol,HMDB00405,1.845,2,m,NA,0.0435,0,[H][C@@]12CC[C@H](O)[C@@]1(C)CC[C@]1([H])C3=C(CC[C@@]21[H])C=C(O)C(OC)=C3,InChIKey=CQOQDQWUFQDJMK-SSTWWWIQSA-N,4.02,-1.4,0.01,NaN,NaN,NaN,NaN,NaN,NaN,NaN,NaN,NaN,NaN,NaN
Lithocholic acid,HMDB00761,1.845,13,m,NA,0.0888,-1,[H][C@@]12CC[C@H]([C@H](C)CCC(O)=O)[C@@]1(C)CC[C@@]1([H])[C@@]2([H])CCC2C[C@H](O)CC[C@]12C,InChIKey=SMEROWZSTRWXGI-YPLGJCPNSA-N,1.77,-1.8,0.33,NaN,NaN,NaN,NaN,NaN,NaN,NaN,NaN,NaN,NaN,NaN
L-2-Hydroxyglutaric acid,HMDB00694,1.845,2,m,NA,0.583,-2,O[C@@H](CCC(O)=O)C(O)=O,InChIKey=HWXBTNAVRSUOJR-VKHMYHEASA-N,1.07,-3.6,1.5,17.6,NaN,NaN,NaN,NaN,NaN,NaN,NaN,NaN,NaN,NaN
Lathosterol,HMDB01170,1.845,1,dt,NA,0.0077,0,[H][C@@]1(CC[C@@]2([H])C3=CC[C@@]4([H])C[C@@H](O)CC[C@]4(C)[C@@]3([H])CC[C@]12C)[C@H](C)CCCC(C)C,InChIKey=IZVFFXVYBHFIHY-SKCNUYALSA-N,1.57,-2.4,3.905,NaN,NaN,NaN,NaN,NaN,NaN,NaN,NaN,NaN,NaN,NaN
5alpha-Cholestanone,HMDB00871,1.845,1,m,NA,0.0626,0,[H][C@@]1(CC[C@@]2([H])[C@]3([H])CC[C@@]4([H])CC(=O)CC[C@]4(C)[C@@]3([H])CC[C@]12C)[C@H](C)CCCC(C)C,InChIKey=PESKGJQREUXSRR-UXIWKSIVSA-N,1.78,4.8,NA,NA,NA,NA,NA,NA,NA,NA,NA,NA,NA,NA
Glutarylglycine,HMDB00590,1.845,2,quin,7.63,0.3102,-2,OC(=O)CCCC(=O)NCC(O)=O,InChIKey=NBLKTRLPZFCMJG-UHFFFAOYSA-N,3.72,-0.38,NA,NA,NA,NA,NA,NA,NA,NA,NA,NA,NA,NA
16a-Hydroxyestrone,HMDB00335,1.845,1,m,NA,0.0146,0,[H][C@@]12C[C@@H](O)C(=O)[C@@]1(C)CC[C@]1([H])C3=C(CC[C@@]21[H])C=C(O)C=C3,InChIKey=WPOCIZJTELRQMF-QFXBJFAPSA-N,4.48,9.66,NaN,NaN,NaN,NaN,NaN,NaN,NaN,NaN,NaN,NaN,NaN,NaN
17a-Estradiol,HMDB00429,1.845,1,m,NA,0.0368,0,[H][C@@]12CC[C@@H](O)[C@@]1(C)CC[C@]1([H])C3=C(CC[C@@]21[H])C=C(O)C=C3,InChIKey=VOXZDWNPVJITMN-SFFUCWETSA-N,1.22,-6.1,NaN,2.3,NaN,NaN,NaN,NaN,NaN,NaN,NaN,NaN,NaN,NaN
Monomethyl glutaric acid,HMDB00858,1.845,2,tt,7.5,0.1738,-1,COC(=O)CCCC(O)=O,InChIKey=IBMRTYCHDPMBFN-UHFFFAOYSA-N,3.13,-7.1,NaN,NaN,NaN,NaN,NaN,NaN,NaN,NaN,NaN,NaN,NaN,NaN
Perillic acid,HMDB04586,1.845,1,m,NA,0.0398,-1,CC(=C)C1CCC(=CC1)C(O)=O,InChIKey=CDSMSBUVCWHORP-UHFFFAOYSA-N,1.89,-6.6,NaN,NaN,NaN,NaN,NaN,NaN,NaN,NaN,NaN,NaN,NaN,NaN
Prostaglandin D2,HMDB01403,1.855,1,m,NA,0.0075,-1,CCCCC[C@H](O)\C=C\[C@@H]1[C@@H](C\C=C/CCCC(O)=O)[C@@H](O)CC1=O,InChIKey=BHMBVRSPMRCCGG-OUTUXVNYSA-N,3.65,5.53,2.00E-04,NaN,NaN,NaN,NaN,NaN,NaN,NaN,NaN,NaN,NaN,NaN
2-Hydroxyestradiol,HMDB00338,1.855,1,m,NA,0.0312,0,[H][C@@]12CC[C@H](O)[C@@]1(C)CC[C@]1([H])C3=C(CC[C@@]21[H])C=C(O)C(O)=C3,InChIKey=DILDHNKDVHLEQB-XSSYPUMDSA-N,1.86,-6.7,NaN,NaN,NaN,NaN,NaN,NaN,NaN,NaN,NaN,NaN,NaN,NaN
Androstanedione,HMDB00899,1.855,2,m,NA,0.1141,0,[H][C@@]12CCC(=O)[C@@]1(C)CC[C@@]1([H])[C@@]2([H])CC[C@@]2([H])CC(=O)CC[C@]12C,InChIKey=RAJWOBJTTGJROA-WZNAKSSCSA-N,1.86,-3,NaN,NaN,NaN,NaN,NaN,NaN,NaN,NaN,NaN,NaN,NaN,NaN
CE(18:2(9Z.12Z)),HMDB00610,1.855,3,m,NA,0.1643,0,CCCCC\C=C/C\C=C/CCCCCCCC(=O)O[C@H]1CC[C@@]2(C)C(=CC[C@@]3([H])[C@]4([H])CC[C@]([H])([C@H](C)CCCC(C)C)[C@@]4(C)CC[C@]23[H])C1,InChIKey=NAACPBBQTFFYQB-LJAITQKLSA-N,1.87,10,NaN,NaN,NaN,NaN,NaN,NaN,NaN,NaN,NaN,NaN,NaN,NaN
Perillyl alcohol,HMDB03634,1.855,1,m,NA,0.0679,0,CC(=C)C1CCC(CO)=CC1,InChIKey=NDTYTMIUWGWIMO-UHFFFAOYSA-N,14.58,-3,NaN,NaN,NaN,NaN,NaN,NaN,NaN,NaN,NaN,NaN,NaN,NaN
Tiglylglycine,HMDB00959,1.855,3,t,1.08,1,-1,C\C=C(/C)C(=O)NCC(O)=O,InChIKey=WRUSVQOKJIDBLP-HWKANZROSA-N,19.35,1.6,NaN,NaN,NaN,NaN,NaN,NaN,NaN,NaN,NaN,NaN,NaN,NaN
Lathosterol,HMDB01170,1.865,1,m,NA,0.0025,0,[H][C@@]1(CC[C@@]2([H])C3=CC[C@@]4([H])C[C@@H](O)CC[C@]4(C)[C@@]3([H])CC[C@]12C)[C@H](C)CCCC(C)C,InChIKey=IZVFFXVYBHFIHY-SKCNUYALSA-N,1.57,-2.4,3.905,NaN,NaN,NaN,NaN,NaN,NaN,NaN,NaN,NaN,NaN,NaN
Ibuprofen,HMDB01925,1.865,1,m,NA,0.0572,-1,CC(C)CC1=CC=C(C=C1)C(C)C(O)=O,InChIKey=HEFNNWSXXWATRW-UHFFFAOYSA-N,12.2,3.34,242,NaN,NaN,NaN,NaN,NaN,NaN,NaN,NaN,NaN,NaN,NaN
11a-Hydroxyprogesterone,HMDB00920,1.865,1,t,9.04,0.0839,0,[H][C@@]12CCC(C(C)=O)[C@@]1(C)C[C@@H](O)[C@@]1([H])[C@@]2([H])CCC2=CC(=O)CC[C@]12C,InChIKey=BFZHCUBIASXHPK-ODYOLWGQSA-N,16.38,10.67,NA,NA,NA,NA,NA,NA,NA,NA,NA,NA,NA,NA
Canrenone,HMDB03033,1.865,3,m,NA,0.0497,0,[H][C@@]12CC[C@@]3(CCC(=O)O3)[C@@]1(C)CC[C@@]1([H])[C@@]2([H])C=CC2=CC(=O)CC[C@]12C,InChIKey=UJVLDDZCTMKXJK-WNHSNXHDSA-N,6.68,-0.81,NA,NA,NA,NA,NA,NA,NA,NA,NA,NA,NA,NA
Danazol,HMDB02835,1.865,1,m,NA,0.0553,0,[H][C@@]12CC[C@@](O)(C#C)[C@@]1(C)CC[C@@]1([H])[C@@]2([H])CCC2=CC3=C(C[C@]12C)C=NO3,InChIKey=POZRVZJJTULAOH-LHZXLZLDSA-N,2.89,-3.5,NA,NA,NA,NA,NA,NA,NA,NA,NA,NA,NA,NA
Uvaol,HMDB02391,1.865,2,d,5.5,0.12,0,[H][C@@]12[C@@H](C)[C@H](C)CC[C@]1(CO)CC[C@]1(C)C2=CC[C@]2([H])[C@@]3(C)CC[C@H](O)C(C)(C)[C@]3([H])CC[C@@]12C,InChIKey=XUARCIYIVXVTAE-ZAPOICBTSA-N,13.56,-6.6,NA,NA,NA,NA,NA,NA,NA,NA,NA,NA,NA,NA
Cholestenone,HMDB00921,1.865,2,m,NA,0.154,0,[H][C@@]12CC[C@H]([C@H](C)CCCC(C)C)[C@@]1(C)CC[C@@]1([H])[C@@]2([H])CCC2=CC(=O)CC[C@]12C,InChIKey=NYOXRYYXRWJDKP-GYKMGIIDSA-N,0.83,7.72,NaN,NaN,NaN,NaN,NaN,NaN,NaN,NaN,NaN,NaN,NaN,NaN
L-Pipecolic acid,HMDB00716,1.865,2,m,NA,0.2673,0,OC(=O)[C@@H]1CCCCN1,InChIKey=HXEACLLIILLPRG-YFKPBYRVSA-N,10.87,-4.9,NaN,NaN,NaN,NaN,NaN,NaN,NaN,NaN,NaN,NaN,NaN,NaN
L-Norleucine,HMDB01645,1.869,21,m,NA,0.0424,0,CCCC[C@H](N)C(O)=O,InChIKey=LRQKBLKVPFOOQJ-YFKPBYRVSA-N,-1.2,-3.2,NaN,NaN,NaN,NaN,NaN,NaN,NaN,NaN,NaN,NaN,NaN,NaN
Dehydroepiandrosterone,HMDB00077,1.875,11,m,NA,0.1529,0,C[C@]12CCC3C(CC=C4C[C@@H](O)CC[C@]34C)C1CCC2=O,InChIKey=FMGSKLZLMKYGDP-INNQQZFDSA-N,1.49,9.22,0.023,0.0658,NaN,0.0033,NaN,NaN,NaN,NaN,NaN,NaN,NaN,NaN
Glutaric acid,HMDB00661,1.875,2,tt,7.45,0.3534,-2,OC(=O)CCCC(O)=O,InChIKey=JFCQEDHGNNZCLN-UHFFFAOYSA-N,4.95,4.96,0.8,1.3,NaN,NaN,NaN,NaN,NaN,NaN,NaN,NaN,NaN,NaN
Pipecolic acid,HMDB00070,1.875,2,m,NA,1,0,OC(=O)C1CCCCN1,InChIKey=HXEACLLIILLPRG-UHFFFAOYSA-N,2.8,-3.6,1.83,0.114,NaN,NaN,0.403,NaN,NaN,NaN,NaN,NaN,NaN,NaN
Azythromycin,HMDB01916,1.875,2,m,NA,0.0201,2,CC[C@@H]1OC(=O)[C@H](C)[C@@H](O[C@@H]2C[C@](C)(OC)[C@H](O)[C@@H](C)O2)[C@@H](C)[C@H](O[C@H]2O[C@@H](C)C[C@H]([C@@H]2O)N(C)C)[C@@](C)(O)C[C@H](C)CN(C)[C@@H](C)[C@@H](O)[C@]1(C)O,InChIKey=MQTOSJVFKKJCRP-HHZDEWPHSA-N,3.84,1.99,NA,NA,NA,NA,NA,NA,NA,NA,NA,NA,NA,NA
Biocytin,HMDB03134,1.875,8,m,NA,0.2395,0,[H][C@]12CS[C@@H](CCCCC(=O)NCCCC[C@H](N)C(O)=O)[C@@]1([H])NC(=O)N2,InChIKey=BAQMYDQNMFBZNA-MNXVOIDGSA-N,14.58,-3,NA,NA,NA,NA,NA,NA,NA,NA,NA,NA,NA,NA
Delta-Hexanolactone,HMDB00453,1.875,2,m,NA,0.0809,0,CC1CCCC(=O)O1,InChIKey=RZTOWFMDBDPERY-UHFFFAOYSA-N,1.86,5.14,NA,NA,NA,NA,NA,NA,NA,NA,NA,NA,NA,NA
5beta-Coprostanol,HMDB00577,1.875,1,tt,NA,0.011,0,[H][C@@]1(CC[C@@]2([H])[C@]3([H])CC[C@]4([H])C[C@@H](O)CC[C@]4(C)[C@@]3([H])CC[C@]12C)[C@H](C)CCCC(C)C,InChIKey=QYIXCDOBOSTCEI-NWKZBHTNSA-N,4.42,-7.4,NaN,NaN,NaN,NaN,NaN,NaN,NaN,NaN,NaN,NaN,NaN,NaN
Canthaxanthin,HMDB03154,1.875,4,t,NA,0.3826,0,C\C(\C=C\C=C(/C)\C=C\C1=C(C)C(=O)CCC1(C)C)=C/C=C/C=C(\C)/C=C/C=C(\C)/C=C/C1=C(C)C(=O)CCC1(C)C,InChIKey=FDSDTBUPSURDBL-DKLMTRRASA-N,14.58,-3,NaN,NaN,NaN,NaN,NaN,NaN,NaN,NaN,NaN,NaN,NaN,NaN
Cyclohexanone,HMDB03315,1.875,4,m,NA,0.5125,0,O=C1CCCCC1,InChIKey=JHIVVAPYMSGYDF-UHFFFAOYSA-N,14.58,-3,NaN,NaN,NaN,NaN,NaN,NaN,NaN,NaN,NaN,NaN,NaN,NaN
Quinic acid,HMDB03072,1.875,1,dd,13.45 10.87,0.2343,-1,OC1C[C@@](O)(C[C@@H](O)[C@H]1O)C(O)=O,InChIKey=AAWZDTNXLSGCEK-RKGSPJAZSA-N,1.86,-0.032,NaN,NaN,NaN,NaN,NaN,NaN,NaN,NaN,NaN,NaN,NaN,NaN
Stigmasterol,HMDB00937,1.875,1,m,NA,0.1711,0,CC[C@H](\C=C\[C@@H](C)[C@@]1([H])CC[C@@]2([H])[C@]3([H])CC=C4C[C@@H](O)CC[C@]4(C)[C@@]3([H])CC[C@]12C)C(C)C,InChIKey=HCXVJBMSMIARIN-PHZDYDNGSA-N,16.3,5.29,NaN,NaN,NaN,NaN,NaN,NaN,NaN,NaN,NaN,NaN,NaN,NaN
Thymine,HMDB00262,1.875,3,s,NA,1,0,CC1=CNC(=O)NC1=O,InChIKey=RWQNBRDOKXIBIV-UHFFFAOYSA-N,4.41,-6,NaN,0.202,NaN,4.7375,NA,NaN,NaN,NaN,NaN,NaN,NaN,NaN
Testosterone,HMDB00234,1.881,2,m,NA,0.1066,0,[H][C@@]12CC[C@H](O)[C@@]1(C)CC[C@@]1([H])[C@@]2([H])CCC2=CC(=O)CC[C@]12C,InChIKey=MUMGGOZAMZWBJJ-DYKIIFRCSA-N,4.56,-2.8,NaN,1.07,NaN,NaN,NaN,NaN,NaN,NaN,NaN,NaN,NaN,NaN
N-Acetylserotonin,HMDB01238,1.883,3,s,NA,0.1601,0,CC(=O)NCCC1=CNC2=C1C=C(O)C=C2,InChIKey=MVAWJSIDNICKHF-UHFFFAOYSA-N,2.7,-1.4,NaN,NaN,NaN,NaN,NaN,NaN,NaN,NaN,NaN,NaN,NaN,NaN
Progesterone,HMDB01830,1.885,1,m,NA,0.05,0,[H][C@@]12CC[C@H](C(C)=O)[C@@]1(C)CC[C@@]1([H])[C@@]2([H])CCC2=CC(=O)CC[C@]12C,InChIKey=RJKFOVLPORLFTN-LEKSSAKUSA-N,11.17,-6.2,0.0025,NaN,NaN,NaN,NaN,NaN,NaN,NaN,NaN,NaN,NaN,NaN
Androstenedione,HMDB00053,1.885,4,dt,12.95 3.34,0.0663,0,[H][C@@]12CCC(=O)[C@@]1(C)CC[C@@]1([H])[C@@]2([H])CCC2=CC(=O)CC[C@]12C,InChIKey=AEMFNILZOJDQLW-QAGGRKNESA-N,18.2,-7.4,0.0059,0.0068,NaN,NaN,NaN,NaN,NaN,NaN,NaN,NaN,NaN,NaN
Deoxycholic acid,HMDB00626,1.885,1,m,NA,0.069,-1,[H][C@@]12CC[C@H]([C@H](C)CCC(O)=O)[C@@]1(C)[C@@H](O)C[C@@]1([H])[C@@]2([H])CC[C@]2([H])C[C@H](O)CC[C@]12C,InChIKey=KXGVEGMKQFWNSR-LLQZFEROSA-N,4.73,-2,0.33,NaN,NaN,NaN,NaN,NaN,NaN,NaN,NaN,NaN,NaN,NaN
Homo-L-arginine,HMDB00670,1.885,2,m,NA,0.4536,1,N[C@@H](CCCCNC(N)=N)C(O)=O,InChIKey=QUOGESRFPZDMMT-YFKPBYRVSA-N,1.14,-3.7,3.56,0.98,NaN,NaN,NaN,NaN,NaN,NaN,NaN,NaN,NaN,NaN
7-Dehydrocholesterol,HMDB00032,1.885,5,m,NA,0.1749,0,[H][C@@]12CC[C@H]([C@H](C)CCCC(C)C)[C@@]1(C)CC[C@@]1([H])C2=CC=C2C[C@@H](O)CC[C@]12C,InChIKey=UCTLRSWJYQTBFZ-DDPQNLDTSA-N,11.25,4.99,5,0.029,NaN,NaN,0,NaN,NaN,NaN,NaN,NaN,NaN,NaN
Citrulline,HMDB00904,1.885,2,m,NA,0.6956,0,N[C@@H](CCCNC(N)=O)C(O)=O,InChIKey=RHGKLRLOHDJJDR-BYPYZUCNSA-N,1.5,-7,38,0.3775,NaN,51.82,3.31,NaN,NaN,NaN,NaN,NaN,NaN,NaN
CE(16:0),HMDB00885,1.885,3,m,NA,0.0404,0,[H][C@@]1(CC[C@@]2([H])[C@]3([H])CC=C4C[C@H](CC[C@]4(C)[C@@]3([H])CC[C@]12C)OC(=O)CCCCCCCCCCCCCCC)[C@H](C)CCCC(C)C,InChIKey=BBJQPKLGPMQWBU-JADYGXMDSA-N,1.87,10,297.73,NaN,NaN,NaN,NaN,NaN,NaN,NaN,NaN,NaN,NaN,NaN
Vinylacetylglycine,HMDB00894,1.885,2,d,6.59,0.8756,-1,OC(=O)CNC(=O)CC=C,InChIKey=UKISAGFGRDHYFO-UHFFFAOYSA-N,1.86,-3,NA,NA,NA,NA,NA,NA,NA,NA,NA,NA,NA,NA
2-Isopropylmalic acid,HMDB00402,1.885,1,m,NA,0.0998,-2,CC(C)[C@@](O)(CC(O)=O)C(O)=O,InChIKey=BITYXLXUCSKTJS-ZETCQYMHSA-N,5.02,-6.8,NaN,NaN,NaN,NaN,NaN,NaN,NaN,NaN,NaN,NaN,NaN,NaN
Canthaxanthin,HMDB03154,1.885,6,d,0.66,0.3826,0,C\C(\C=C\C=C(/C)\C=C\C1=C(C)C(=O)CCC1(C)C)=C/C=C/C=C(\C)/C=C/C=C(\C)/C=C/C1=C(C)C(=O)CCC1(C)C,InChIKey=FDSDTBUPSURDBL-DKLMTRRASA-N,14.58,-3,NaN,NaN,NaN,NaN,NaN,NaN,NaN,NaN,NaN,NaN,NaN,NaN
Deoxycorticosterone,HMDB00016,1.885,1,m,NA,0.0524,0,[H][C@@]12CC[C@H](C(=O)CO)[C@@]1(C)CC[C@@]1([H])[C@@]2([H])CCC2=CC(=O)CC[C@]12C,InChIKey=ZESRJSPZRDMNHY-YFWFAHHUSA-N,-1.9,-2.7,NaN,NaN,NaN,NaN,NaN,NaN,NaN,NaN,NaN,NaN,NaN,NaN
Hyodeoxycholic acid,HMDB00733,1.885,2,m,NA,0.075,-1,[H][C@@]12CC[C@H]([C@H](C)CCC(O)=O)[C@@]1(C)CC[C@@]1([H])[C@@]2([H])C[C@H](O)C2C[C@H](O)CC[C@]12C,InChIKey=DGABKXLVXPYZII-CDONHWFASA-N,5.01,-3.2,NaN,NaN,NaN,NaN,NaN,NaN,NaN,NaN,NaN,NaN,NaN,NaN
N6-Acetyl-L-lysine,HMDB00206,1.885,2,m,NA,0.0745,0,CC(=O)NCCCC[C@H](N)C(O)=O,InChIKey=DTERQYGMUDWYAZ-ZETCQYMHSA-N,9.77,-1.4,NaN,NaN,NaN,NaN,NaN,NaN,NaN,NaN,NaN,NaN,NaN,NaN
N-Acetylglutamic acid,HMDB01138,1.885,1,m,NA,0.0397,-2,CC(=O)NC(CCC(O)=O)C(O)=O,InChIKey=RFMMMVDNIPUKGG-UHFFFAOYSA-N,1.19,-6.1,NaN,1,NaN,NaN,NaN,NaN,NaN,NaN,NaN,NaN,NaN,NaN
Oxoadipic acid,HMDB00225,1.885,3,m,NA,0.7055,-2,OC(=O)CCCC(=O)C(O)=O,InChIKey=FGSBNBBHOZHUBO-UHFFFAOYSA-N,13.8,-3.5,NaN,NaN,NaN,NaN,NaN,NaN,NaN,NaN,NaN,NaN,NaN,NaN
Chenodeoxycholic acid,HMDB00518,1.892,2,m,NA,0.0738,-1,[H][C@@]1(CC[C@@]2([H])[C@]3([H])[C@H](O)C[C@]4([H])C[C@H](O)CC[C@]4(C)[C@@]3([H])CC[C@]12C)[C@H](C)CCC(O)=O,InChIKey=RUDATBOHQWOJDD-BSWAIDMHSA-N,2.15,-4.1,1.165,NaN,NaN,NaN,NaN,NaN,NaN,NaN,NaN,NaN,NaN,NaN
D-Limonene,HMDB03375,1.895,2,m,NA,0.0345,0,CC(=C)[C@H]1CCC(C)=CC1,InChIKey=XMGQYMWWDOXHJM-SNVBAGLBSA-N,14.58,-3,0.19,NaN,NaN,NaN,NaN,NaN,NaN,NaN,NaN,NaN,NaN,NaN
16-Dehydroprogesterone,HMDB00995,1.895,1,m,NA,0.0595,0,[H][C@@]12CC=C(C(C)=O)[C@@]1(C)CC[C@@]1([H])[C@@]2([H])CCC2=CC(=O)CC[C@]12C,InChIKey=VRRHHTISESGZFN-RKFFNLMFSA-N,2.52,-0.94,NA,NA,NA,NA,NA,NA,NA,NA,NA,NA,NA,NA
(+)-Limonene,HMDB04321,1.895,2,m,NA,0.0196,0,CC(=C)[C@@H]1CCC(C)=CC1,InChIKey=XMGQYMWWDOXHJM-JTQLQIEISA-N,1.86,-6.7,NaN,NaN,NaN,NaN,NaN,NaN,NaN,NaN,NaN,NaN,NaN,NaN
2-Methoxyestrone,HMDB00010,1.895,2,m,NA,0.0192,0,[H][C@@]12CCC(=O)[C@@]1(C)CC[C@]1([H])C3=C(CC[C@@]21[H])C=C(O)C(OC)=C3,InChIKey=WHEUWNKSCXYKBU-QPWUGHHJSA-N,1.87,10,NaN,0.005,NaN,NaN,NaN,NaN,NaN,NaN,NaN,NaN,NaN,NaN
Diaminopimelic acid,HMDB01370,1.895,4,m,NA,0.1818,0,N[C@@H](CCC[C@H](N)C(O)=O)C(O)=O,InChIKey=GMKMEZVLHJARHF-WHFBIAKZSA-N,2.01,4.95,NaN,NaN,NaN,NaN,NaN,NaN,NaN,NaN,NaN,NaN,NaN,NaN
Tetrahydrofuran,HMDB00246,1.895,48,dt,6.59 3.29,0.9013,0,C1CCOC1,InChIKey=WYURNTSHIVDZCO-UHFFFAOYSA-N,4.15,-2.6,NaN,NaN,NaN,NaN,NaN,NaN,NaN,NaN,NaN,NaN,NaN,NaN
Ribothymidine,HMDB00884,1.901,3,s,NA,1,0,CC1=CN([C@@H]2O[C@H](CO)[C@@H](O)[C@H]2O)C(=O)NC1=O,InChIKey=DWRXFEITVBNRMK-JXOAFFINSA-N,0.83,9.06,NaN,NaN,NaN,NaN,NaN,NaN,NaN,NaN,NaN,NaN,NaN,NaN
Thymidine,HMDB00273,1.902,1,s,NA,1,0,CC1=CN([C@H]2C[C@H](O)[C@@H](CO)O2)C(=O)NC1=O,InChIKey=IQFYYKKMVGJFEH-XLPZGREQSA-N,18.3,-5.5,0.205,6.87,NaN,NaN,NaN,NaN,NaN,NaN,NaN,NaN,NaN,NaN
17a-Ethynylestradiol,HMDB01926,1.905,7,m,NA,0.1486,0,[H][C@@]12CC[C@@](O)(C#C)[C@@]1(C)CC[C@]1([H])C3=CC=C(O)C=C3CC[C@@]21[H],InChIKey=BFPYWIDHMRZLRN-SLHNCBLASA-N,18.38,9.27,0.00016,NaN,NaN,NaN,NaN,NaN,NaN,NaN,NaN,NaN,NaN,NaN
Gamma-Aminobutyric acid,HMDB00112,1.905,2,m,NA,0.5818,0,NCCCC(O)=O,InChIKey=BTCSSZJGUNDROE-UHFFFAOYSA-N,2.79,-3.6,0.11,NA,NaN,NA,0.22075,NaN,NaN,NaN,NaN,NaN,NaN,NaN
L-Lysine,HMDB00182,1.905,19,m,NA,0.4285,1,NCCCC[C@H](N)C(O)=O,InChIKey=KDXKERNSBIXSRK-YFKPBYRVSA-N,0.3,-3.7,266.8666667,7.325,NaN,NA,22.8,NaN,NaN,NaN,NaN,NaN,NaN,NaN
Isovalerylglutamic acid,HMDB00726,1.905,1,m,NA,0.0771,-2,CC(C)CC(=O)N[C@@H](CCC(O)=O)C(O)=O,InChIKey=HCVIJONZMYVLAW-ZETCQYMHSA-N,1.12,4.95,NA,NA,NA,NA,NA,NA,NA,NA,NA,NA,NA,NA
Homocarnosine,HMDB00745,1.905,2,m,NA,0.1305,0,NCCCC(=O)N[C@@H](CC1=CNC=N1)C(O)=O,InChIKey=CCLQKVKJOGVQLU-QMMMGPOBSA-N,-1.3,-1.2,NaN,NaN,NaN,NaN,NaN,NaN,NaN,NaN,NaN,NaN,NaN,NaN
Cortisone,HMDB02802,1.915,3,m,NA,0.1515,0,[H][C@@]12CC[C@](O)(C(=O)CO)[C@@]1(C)CC(=O)[C@@]1([H])[C@@]2([H])CCC2=CC(=O)CC[C@]12C,InChIKey=MFYSYFVPBJMHGN-ZPOLXVRWSA-N,17.79,2.77,0.0624,0.011,NaN,NaN,NaN,NaN,NaN,NaN,NaN,NaN,NaN,NaN
Pregnenolone sulfate,HMDB00774,1.915,1,dt,NA,0.0063,-1,[H][C@@]12CC[C@H](C(C)=O)[C@@]1(C)CC[C@@]1([H])[C@@]2([H])CC=C2CC(CC[C@]12C)OS(O)(=O)=O,InChIKey=DIJBBUIOWGGQOP-OZIWPBGVSA-N,-0.99,5.01,0.13,NaN,NaN,NaN,NaN,NaN,NaN,NaN,NaN,NaN,NaN,NaN
Cholesterol sulfate,HMDB00653,1.915,3,m,NA,0.0552,-1,[H][C@@]12CC[C@H]([C@H](C)CCCC(C)C)[C@@]1(C)CC[C@@]1([H])[C@@]2([H])CC=C2C[C@H](CC[C@]12C)OS(O)(=O)=O,InChIKey=BHYOQNUELFTYRT-DPAQBDIFSA-N,1.22,-1.3,5.4,NaN,NaN,NaN,NaN,NaN,NaN,NaN,NaN,NaN,NaN,NaN
L-Arginine,HMDB00517,1.915,4,m,NA,0.3246,1,N[C@@H](CCCN=C(N)N)C(O)=O,InChIKey=ODKSFYDXXFIFQN-BYPYZUCNSA-N,12.21,-0.95,116.45,NA,NaN,35.73,18.2075,NaN,NaN,NaN,NaN,NaN,NaN,NaN
2-Hydroxyestrone,HMDB00343,1.915,1,m,NA,0.0418,0,[H][C@@]12CCC(=O)[C@@]1(C)CC[C@]1([H])C3=C(CC[C@@]21[H])C=C(O)C(O)=C3,InChIKey=SWINWPBPEKHUOD-JPVZDGGYSA-N,4,-2.8,NaN,NaN,NaN,NaN,NaN,NaN,NaN,NaN,NaN,NaN,NaN,NaN
3-Methyladipic acid,HMDB00555,1.915,1,ddd,13.77 7.09,0.1729,-2,C[C@@H](CCC(O)=O)CC(O)=O,InChIKey=SYEOWUNSTUDKGM-YFKPBYRVSA-N,1.19,-3.8,NaN,6.05,NaN,NaN,NaN,NaN,NaN,NaN,NaN,NaN,NaN,NaN
3-Methylcrotonylglycine,HMDB00459,1.915,23,s,NA,1,-1,CC(C)=CC(=O)NCC(O)=O,InChIKey=PFWQSHXPNKRLIV-UHFFFAOYSA-N,3.52,-3.3,NaN,1,NaN,NaN,NaN,NaN,NaN,NaN,NaN,NaN,NaN,NaN
D-Lysine,HMDB03405,1.915,2,m,NA,0.3346,1,NCCCC[C@@H](N)C(O)=O,InChIKey=KDXKERNSBIXSRK-RXMQYKEDSA-N,14.58,-3,NaN,NaN,NaN,NaN,NaN,NaN,NaN,NaN,NaN,NaN,NaN,NaN
Epitestosterone,HMDB00628,1.915,1,m,NA,0.0205,0,[H][C@@]12CC[C@@H](O)[C@@]1(C)CC[C@@]1([H])[C@@]2([H])CCC2=CC(=O)CC[C@]12C,InChIKey=MUMGGOZAMZWBJJ-KZYORJDKSA-N,3.89,4.89,NaN,NaN,NaN,NaN,NaN,NaN,NaN,NaN,NaN,NaN,NaN,NaN
Ergocalciferol,HMDB00900,1.915,1,m,NA,0.0038,0,CC(C)[C@@H](C)\C=C\[C@@H](C)[C@H]1CC[C@@]2([H])\C(CCC[C@]12C)=C\C=C1\C[C@@H](O)CCC1=C,InChIKey=MECHNRXZTMCUDQ-RKHKHRCZSA-N,3.25,-6.3,NaN,NaN,NaN,0.008,NaN,NaN,NaN,NaN,NaN,NaN,NaN,NaN
Melatonin,HMDB01389,1.915,4,s,NA,1,0,COC1=CC2=C(NC=C2CCNC(C)=O)C=C1,InChIKey=DRLFMBDRBRZALE-UHFFFAOYSA-N,4.12,-7.2,NaN,NaN,NaN,NaN,NaN,NaN,NaN,NaN,NaN,NaN,NaN,NaN
N-Acetyl-L-phenylalanine,HMDB00512,1.915,3,s,NA,1,-1,CC(=O)N[C@@H](CC1=CC=CC=C1)C(O)=O,InChIKey=CBQJSKKFNMDLON-JTQLQIEISA-N,4.15,9.5,NaN,NaN,NaN,NaN,NaN,NaN,NaN,NaN,NaN,NaN,NaN,NaN
Nutriacholic acid,HMDB00467,1.915,3,m,NA,0.0609,-1,[H][C@@]12CCC([C@@H](C)CCC(O)=O)[C@@]1(C)CC[C@@]1([H])[C@@]2([H])C(=O)C[C@]2([H])C[C@H](O)CC[C@]12C,InChIKey=DXOCDBGWDZAYRQ-QPVZPPSOSA-N,3.78,-0.78,NaN,NaN,NaN,NaN,NaN,NaN,NaN,NaN,NaN,NaN,NaN,NaN
Saccharopine,HMDB00279,1.915,2,m,NA,0.1022,-1,N[C@@H](CCCCN[C@@H](CCC(O)=O)C(O)=O)C(O)=O,InChIKey=ZDGJAHTZVHVLOT-YUMQZZPRSA-N,4.48,-2.8,NaN,NaN,NaN,NaN,NaN,NaN,NaN,NaN,NaN,NaN,NaN,NaN
Taurodeoxycholic acid,HMDB00896,1.915,1,br. s.,NA,0.0949,-1,[H][C@@]1(CC[C@@]2([H])[C@]3([H])CC[C@]4([H])C[C@H](O)CC[C@]4(C)[C@@]3([H])C[C@H](O)[C@]12C)[C@H](C)CCC(=O)NCCS(O)(=O)=O,InChIKey=AWDRATDZQPNJFN-VAYUFCLWSA-N,1.86,-6.7,NaN,NaN,NaN,NaN,NaN,NaN,NaN,NaN,NaN,NaN,NaN,NaN
L-Alpha-aminobutyric acid,HMDB00452,1.921,2,m,NA,0.192,0,CC[C@H](N)C(O)=O,InChIKey=QWCKQJZIFLGMSD-VKHMYHEASA-N,1.87,10,22,0.77875,NaN,NaN,3.33,NaN,NaN,NaN,NaN,NaN,NaN,NaN