Metabolite,HMDB Name,Shift (ppm),Hs,Type,J (Hz),Height,Physiological Charge,SMILES,InChlKey,pKa (Strongest Acidic),pKa (Strongest Basic),Blood,Urine,Feces,Saliva,Cerebrospinal Fluid (CSF),Amniotic Fluid,Aqueous Humour,Ascites Fluid,Breast Milk,Lymph,Sweat,Tears
Aldosterone,HMDB00037,1.925,1,m,NA,0.0098,0,C[C@]12CCC(=O)C=C1CCC1C3CC[C@H](C(=O)CO)[C@]3(C[C@H](O)C21)C=O,InChIKey=PQSUYGKTWSAVDQ-SRPWZAMTSA-N,4.03,-3,6.80E-05,0.01,NaN,NA,NaN,NaN,NaN,NaN,NaN,NaN,NaN,NaN
Symmetric dimethylarginine,HMDB03334,1.925,2,m,NA,0.0846,1,CN\C(NCCC[C@H](N)C(O)=O)=N/C,InChIKey=HVPFXCBJHIIJGS-LURJTMIESA-N,14.58,-3,0.502,12.4,NaN,0.35,NaN,NaN,NaN,NaN,NaN,NaN,NaN,NaN
Acetic acid,HMDB00042,1.925,3,s,NA,1,-1,CC(O)=O,InChIKey=QTBSBXVTEAMEQO-UHFFFAOYSA-N,0.71,-3.6,36.15,45.33,NaN,6814.91,87,NaN,NaN,NaN,NaN,NaN,NaN,NaN
5-Thymidylic acid,HMDB01227,1.925,4,s,NA,1,-2,CC1=CN([C@H]2C[C@H](O)[C@@H](COP(O)(O)=O)O2)C(=O)NC1=O,InChIKey=GYOZYWVXFNDGLU-XLPZGREQSA-N,9.56,-2.9,NA,NA,NA,NA,NA,NA,NA,NA,NA,NA,NA,NA
D-Arginine,HMDB03416,1.925,2,m,NA,0.3392,1,N[C@H](CCCNC(N)=N)C(O)=O,InChIKey=ODKSFYDXXFIFQN-SCSAIBSYSA-N,14.58,-3,NA,NA,NA,NA,NA,NA,NA,NA,NA,NA,NA,NA
Hydroxycobalamin,HMDB02308,1.925,3,s,NA,0.0236,2,[Co++].O.OC[C@H]1O[C@@]([H])([C@H](O)[C@]1([H])OP(=O)([O-])O[C@H](C)CNC(=O)CC[C@]1(C)[C@@H](CC(=O)N)[C@@]2([H])[N-]\C1=C(C)/C1=N/C(=C\C3=N\C(=C(C)/C4=N[C@]2(C)[C@@](C)(CC(=O)N)[C@@H]4CCC(=O)N)\[C@@](C)(CC(=O)N)[C@@H]3CCC(=O)N)/C(C)(C)[C@@H]1CCC(=O)N)N1C=NC2=C1C=C(C)C(C)=C2,InChIKey=DQOCFCZRZOAIBN-WZHZPDAFSA-L,2.45,-1.9,NA,NA,NA,NA,NA,NA,NA,NA,NA,NA,NA,NA
Senecioic acid,HMDB00509,1.925,3,d,1.27,0.9371,-1,CC(C)=CC(O)=O,InChIKey=YYPNJNDODFVZLE-UHFFFAOYSA-N,3.77,-7.1,NA,NA,NA,NA,NA,NA,NA,NA,NA,NA,NA,NA
16-a-Hydroxypregnenolone,HMDB00315,1.925,1,m,NA,0.0213,0,[H][C@@]12C[C@@H](O)[C@H](C(C)=O)[C@@]1(C)CC[C@@]1([H])[C@@]2([H])CC=C2C[C@@H](O)CC[C@]12C,InChIKey=ZAKJZPQDUPCXSD-YRWKUUEZSA-N,18.3,-0.16,NaN,NaN,NaN,NaN,NaN,NaN,NaN,NaN,NaN,NaN,NaN,NaN
Argininosuccinic acid,HMDB00052,1.925,2,m,NA,0.4095,-1,N[C@@H](CCCNC(=N)N[C@@H](CC(O)=O)C(O)=O)C(O)=O,InChIKey=KDZOASGQNOPSCU-WDSKDSINSA-N,0.83,-9.9,NaN,0.0032,NaN,NaN,NaN,NaN,NaN,NaN,NaN,NaN,NaN,NaN
Sulfolithocholic acid,HMDB00907,1.925,2,m,NA,0.0705,-2,[H][C@@]12CC[C@H]([C@H](C)CCC(O)=O)[C@@]1(C)CC[C@@]1([H])[C@@]2([H])CCC2C[C@@H](CC[C@]12C)OS(O)(=O)=O,InChIKey=AXDXVEYHEODSPN-YPLGJCPNSA-N,0.45,9.33,NaN,NaN,NaN,NaN,NaN,NaN,NaN,NaN,NaN,NaN,NaN,NaN
Citraconic acid,HMDB00634,1.928,18,d,1.54,0.461,-2,C\C(=C\C(O)=O)C(O)=O,InChIKey=HNEGQIOMVPPMNR-IHWYPQMZSA-N,-1.4,9.8,NaN,NaN,NaN,NaN,NaN,NaN,NaN,NaN,NaN,NaN,NaN,NaN
Thymidine 5'-triphosphate,HMDB01342,1.934,3,d,1.14,1,-3,CC1=CN([C@H]2C[C@H](O)[C@@H](COP(O)(=O)OP(O)(=O)OP(O)(O)=O)O2)C(=O)NC1=O,InChIKey=NHVNXKFIZYSCEB-XLPZGREQSA-N,1.38,-3.7,NA,NA,NA,NA,NA,NA,NA,NA,NA,NA,NA,NA
Anabasine,HMDB04350,1.935,1,m,NA,0.0353,1,C1CCC(NC1)C1=CN=CC=C1,InChIKey=MTXSIJUGVMTTMU-UHFFFAOYSA-N,1.86,-4.8,0.0031,4.4,NaN,NaN,NaN,NaN,NaN,NaN,NaN,NaN,NaN,NaN
Vitamin D3,HMDB00876,1.935,3,m,NA,0.0273,0,CC(C)CCC[C@@H](C)[C@H]1CCC2\C(CCC[C@]12C)=C\C=C1\C[C@@H](O)CCC1=C,InChIKey=QYSXJUFSXHHAJI-QWSSABAFSA-N,1.1,-3.6,0.03705,NaN,NaN,0.006,NaN,NaN,NaN,NaN,NaN,NaN,NaN,NaN
5-Hydroxylysine,HMDB00450,1.935,11,m,NA,0.4385,1,NC[C@H](O)CC[C@H](N)C(O)=O,InChIKey=YSMODUONRAFBET-UHNVWZDZSA-N,1.87,-3,2.5,0.555,NaN,NaN,NaN,NaN,NaN,NaN,NaN,NaN,NaN,NaN
17-alpha.20-alpha-Dihydroxypregn-4-en-3-one,HMDB11653,1.935,2,m,NA,0.0909,0,[H][C@@]12CC[C@](O)([C@H](C)O)[C@@]1(C)CC[C@@]1([H])[C@@]2([H])CCC2=CC(=O)CC[C@]12C,InChIKey=MASCESDECGBIBB-HNXXTFFGSA-N,1.86,-3,NA,NA,NA,NA,NA,NA,NA,NA,NA,NA,NA,NA
3a.6a.7b-Trihydroxy-5b-cholanoic acid,HMDB00364,1.935,1,m,NA,0.0761,-1,[H][C@@]12CC[C@H]([C@H](C)CCC(O)=O)[C@@]1(C)CC[C@@]1([H])[C@@]2([H])[C@@H](O)[C@H](O)[C@]2([H])C[C@H](O)CC[C@]12C,InChIKey=DKPMWHFRUGMUKF-NTPBNISXSA-N,1.08,-3.4,NA,NA,NA,NA,NA,NA,NA,NA,NA,NA,NA,NA
Mesaconic acid,HMDB00749,1.935,3,d,1.32,1,-2,C\C(=C/C(O)=O)C(O)=O,InChIKey=HNEGQIOMVPPMNR-NSCUHMNNSA-N,3.14,-3.5,NA,NA,NA,NA,NA,NA,NA,NA,NA,NA,NA,NA
2-Hydroxyestrone,HMDB00343,1.935,1,m,NA,0.048,0,[H][C@@]12CCC(=O)[C@@]1(C)CC[C@]1([H])C3=C(CC[C@@]21[H])C=C(O)C(O)=C3,InChIKey=SWINWPBPEKHUOD-JPVZDGGYSA-N,4,-2.8,NaN,NaN,NaN,NaN,NaN,NaN,NaN,NaN,NaN,NaN,NaN,NaN
Glycylproline,HMDB00721,1.935,1,m,NA,0.0442,0,NCC(=O)N1CCCC1C(O)=O,InChIKey=KZNQNBZMBZJQJO-UHFFFAOYSA-N,2.78,8.78,NaN,0.4,NaN,NaN,NaN,NaN,NaN,NaN,NaN,NaN,NaN,NaN
Methyl propenyl ketone,HMDB01184,1.935,2,dd,6.86 1.10,0.3909,0,C\C=C\C(C)=O,InChIKey=LABTWGUMFABVFG-ONEGZZNKSA-N,11.5,9.43,NaN,NaN,NaN,NaN,NaN,NaN,NaN,NaN,NaN,NaN,NaN,NaN
Perillyl alcohol,HMDB03634,1.935,1,m,NA,0.0407,0,CC(=C)C1CCC(CO)=CC1,InChIKey=NDTYTMIUWGWIMO-UHFFFAOYSA-N,14.58,-3,NaN,NaN,NaN,NaN,NaN,NaN,NaN,NaN,NaN,NaN,NaN,NaN
Deacetyldiltiazem,HMDB02873,1.941,3,s,NA,0.4898,1,COC1=CC=C(C=C1)[C@@H]1SC2=CC=CC=C2N(CCN(C)C)C(=O)[C@@H]1O,InChIKey=NZHUXMZTSSZXSB-MOPGFXCFSA-N,2.52,-4,NA,NA,NA,NA,NA,NA,NA,NA,NA,NA,NA,NA
Corticosterone,HMDB01547,1.945,2,m,NA,0.0184,0,[H][C@@]12CC[C@H](C(=O)CO)[C@@]1(C)C[C@H](O)[C@@]1([H])[C@@]2([H])CCC2=CC(=O)CC[C@]12C,InChIKey=OMFXVFTZEKFJBZ-HJTSIMOOSA-N,2.79,-0.13,0.027,NaN,NaN,NaN,NaN,NaN,NaN,NaN,NaN,NaN,NaN,NaN
7-Ketocholesterol,HMDB00501,1.945,6,m,NA,0.1077,0,[H][C@@]12CCC([C@H](C)CCCC(C)C)[C@@]1(C)CC[C@@]1([H])[C@@]2([H])C(=O)C=C2CC(O)CC[C@]12C,InChIKey=YIKKMWSQVKJCOP-QJFKPLHKSA-N,4.65,-6.7,0.056333333,NaN,NaN,NaN,NaN,NaN,NaN,NaN,NaN,NaN,NaN,NaN
Beta-Leucine,HMDB03640,1.945,6,dd,NA,0.1168,0,CC(C)[C@@H](N)CC(O)=O,InChIKey=GLUJNGJDHCTUJY-YFKPBYRVSA-N,14.58,-3,4.8,NaN,NaN,NaN,NaN,NaN,NaN,NaN,NaN,NaN,NaN,NaN
3a.6b.7b-Trihydroxy-5b-cholanoic acid,HMDB00415,1.945,1,m,NA,0.0959,-1,[H][C@@]12CC[C@H]([C@H](C)CCC(O)=O)[C@@]1(C)CC[C@@]1([H])[C@@]2([H])[C@@H](O)[C@@H](O)[C@]2([H])C[C@H](O)CC[C@]12C,InChIKey=DKPMWHFRUGMUKF-CRKPLTDNSA-N,3.85,-3,NA,NA,NA,NA,NA,NA,NA,NA,NA,NA,NA,NA
17a-Estradiol,HMDB00429,1.945,1,dt,NA,0.0506,0,[H][C@@]12CC[C@@H](O)[C@@]1(C)CC[C@]1([H])C3=C(CC[C@@]21[H])C=C(O)C=C3,InChIKey=VOXZDWNPVJITMN-SFFUCWETSA-N,1.22,-6.1,NaN,2.3,NaN,NaN,NaN,NaN,NaN,NaN,NaN,NaN,NaN,NaN
5a-Androstane-3b.17b-diol,HMDB00493,1.945,1,m,NA,0.0477,0,[H][C@@]12CC[C@H](O)[C@@]1(C)CC[C@@]1([H])[C@@]2([H])CC[C@@]2([H])C[C@@H](O)CC[C@]12C,InChIKey=CBMYJHIOYJEBSB-YSZCXEEOSA-N,1.47,-3.7,NaN,NaN,NaN,NaN,NaN,NaN,NaN,NaN,NaN,NaN,NaN,NaN
N-Acetyl-L-tyrosine,HMDB00866,1.945,18,s,NA,1,-1,CC(=O)N[C@@H](CC1=CC=C(O)C=C1)C(O)=O,InChIKey=CAHKINHBCWCHCF-JTQLQIEISA-N,4.09,9.9,NaN,NaN,NaN,NaN,NaN,NaN,NaN,NaN,NaN,NaN,NaN,NaN
Oleanolic acid,HMDB02364,1.945,1,m,NA,0.0315,-1,[H][C@@]12CC(C)(C)CC[C@@]1(CC[C@]1(C)C2=CC[C@]2([H])[C@@]3(C)CC[C@H](O)C(C)(C)[C@]3([H])CC[C@@]12C)C(O)=O,InChIKey=MIJYXULNPSFWEK-GTOFXWBISA-N,3.81,10,NaN,NaN,NaN,NaN,NaN,NaN,NaN,NaN,NaN,NaN,NaN,NaN
Sulforaphane,HMDB05792,1.945,4,m,NA,0.0752,0,CS(=O)CCCCN=C=S,InChIKey=SUVMJBTUFCVSAD-UHFFFAOYSA-N,1.87,10,NaN,NaN,NaN,NaN,NaN,NaN,NaN,NaN,NaN,NaN,NaN,NaN
Mevalonic acid,HMDB00227,1.946,1,m,14.57 4.41 2.11,0.0028,-1,CC(O)(CCO)CC(O)=O,InChIKey=KJTLQQUUPVSXIM-UHFFFAOYSA-N,3.44,-2.9,0.028,0.217775,NaN,NaN,NaN,NaN,NaN,NaN,NaN,NaN,NaN,NaN
Ornithine,HMDB00214,1.948,3,m,NA,0.3623,1,NCCC[C@H](N)C(O)=O,InChIKey=AHLPHDHHMVZTML-BYPYZUCNSA-N,1.87,10,81.175,1.39588,NaN,NA,4.285,NaN,NaN,NaN,NaN,NaN,NaN,NaN
Etiocholanolone,HMDB00490,1.955,2,m,NA,0.0816,0,[H][C@@]12CCC(=O)[C@@]1(C)CC[C@@]1([H])[C@@]2([H])CC[C@]2([H])C[C@H](O)CC[C@]12C,InChIKey=QGXBDMJGAMFCBF-BNSUEQOYSA-N,3.89,9.5,0.0013,NaN,NaN,NaN,NaN,NaN,NaN,NaN,NaN,NaN,NaN,NaN
Isovaleric acid,HMDB00718,1.955,1,dq,7.87 6.66,0.0399,-1,CC(C)CC(O)=O,InChIKey=GWYFCOCPABKNJV-UHFFFAOYSA-N,4.65,3.68,1.6,41,NaN,54.03,1.35,NaN,NaN,NaN,NaN,NaN,NaN,NaN
3b-Hydroxy-5-cholenoic acid,HMDB00308,1.955,4,m,NA,0.1102,-1,[H][C@@]12CC[C@H]([C@H](C)CCC(O)=O)[C@@]1(C)CC[C@@]1([H])[C@@]2([H])CC=C2C[C@@H](O)CC[C@]12C,InChIKey=HIAJCGFYHIANNA-QIZZZRFXSA-N,10.29,-3,NaN,NaN,NaN,NaN,NaN,NaN,NaN,NaN,NaN,NaN,NaN,NaN
Epiandrosterone,HMDB00365,1.955,1,m,NA,0.048,0,[H][C@@]12CCC(=O)[C@@]1(C)CC[C@@]1([H])[C@@]2([H])CCC2C[C@@H](O)CC[C@]12C,InChIKey=QGXBDMJGAMFCBF-QRIARFFBSA-N,9.61,-3,NaN,NaN,NaN,NaN,NaN,NaN,NaN,NaN,NaN,NaN,NaN,NaN
Gamma-Caprolactone,HMDB03843,1.955,1,m,NA,0.0934,0,CCC1CCC(=O)O1,InChIKey=JBFHTYHTHYHCDJ-UHFFFAOYSA-N,14.58,-3,NaN,NaN,NaN,NaN,NaN,NaN,NaN,NaN,NaN,NaN,NaN,NaN
Mevalonolactone,HMDB06024,1.955,1,m,NA,0.0665,0,C[C@]1(O)CCOC(=O)C1,InChIKey=JYVXNLLUYHCIIH-LURJTMIESA-N,1.86,-3,NaN,NaN,NaN,NaN,NaN,NaN,NaN,NaN,NaN,NaN,NaN,NaN
Quinic acid,HMDB03072,1.955,0,ddd,3.91 2.81,0.1801,-1,OC1C[C@@](O)(C[C@@H](O)[C@H]1O)C(O)=O,InChIKey=AAWZDTNXLSGCEK-RKGSPJAZSA-N,1.86,-0.032,NaN,NaN,NaN,NaN,NaN,NaN,NaN,NaN,NaN,NaN,NaN,NaN
Dehydroepiandrosterone,HMDB00077,1.965,4,m,NA,0.0518,0,C[C@]12CCC3C(CC=C4C[C@@H](O)CC[C@]34C)C1CCC2=O,InChIKey=FMGSKLZLMKYGDP-INNQQZFDSA-N,1.49,9.22,0.023,0.0658,NaN,0.0033,NaN,NaN,NaN,NaN,NaN,NaN,NaN,NaN
Glycocholic acid,HMDB00138,1.965,4,m,NA,0.108,-1,[H][C@@]12CC[C@H]([C@H](C)CCC(=O)NCC(O)=O)[C@@]1(C)[C@@H](O)C[C@@]1([H])[C@@]2([H])[C@H](O)CC2C[C@H](O)CC[C@]12C,InChIKey=RFDAIACWWDREDC-MZMBZMQMSA-N,4.55,8.85,0.06,0.42,NaN,NaN,NaN,NaN,NaN,NaN,NaN,NaN,NaN,NaN
Cotinine,HMDB01046,1.965,1,m,NA,NA,0,CN1C(CCC1=O)C1=CN=CC=C1,InChIKey=UIKROCXWUNQSPJ-UHFFFAOYSA-N,1.68,-0.81,1.4,NaN,NaN,NA,NaN,NaN,NaN,NaN,NaN,NaN,NaN,NaN
Campesterol,HMDB02869,1.965,2,m,NA,0.0077,0,[H][C@@]12CC[C@H]([C@H](C)CC[C@H](C)C(C)C)[C@@]1(C)CC[C@@]1([H])[C@@]2([H])CC=C2C[C@@H](O)CC[C@]12C,InChIKey=SGNBVLSWZMBQTH-ZRUUVFCLSA-N,1.87,8,8.346666667,NaN,NaN,NaN,NaN,NaN,NaN,NaN,NaN,NaN,NaN,NaN
Beta-Sitosterol,HMDB00852,1.965,2,m,NA,0.0037,0,[H][C@@]1(CC[C@@]2([H])[C@]3([H])CC=C4C[C@@H](O)CC[C@]4(C)[C@@]3([H])CC[C@]12C)[C@H](C)CC[C@@H](CC)C(C)C,InChIKey=KZJWDPNRJALLNS-VJSFXXLFSA-N,-33,-2,9.744,NaN,NaN,NaN,NaN,NaN,NaN,NaN,NaN,NaN,NaN,NaN
Bilirubin,HMDB00054,1.965,7,none,NA,1,-2,CC1=C(C=C)\C(NC1=O)=C\C1=C(C)C(CCC(O)=O)=C(CC2=C(CCC(O)=O)C(C)=C(N2)\C=C2/NC(=O)C(C=C)=C2C)N1,InChIKey=BPYKTIZUTYGOLE-IFADSCNNSA-N,3.6,-0.54,11.6,NA,NaN,NaN,0,NaN,NaN,NaN,NaN,NaN,NaN,NaN
16a-Hydroxyestrone,HMDB00335,1.965,1,td,NA,0.0257,0,[H][C@@]12C[C@@H](O)C(=O)[C@@]1(C)CC[C@]1([H])C3=C(CC[C@@]21[H])C=C(O)C=C3,InChIKey=WPOCIZJTELRQMF-QFXBJFAPSA-N,4.48,9.66,NaN,NaN,NaN,NaN,NaN,NaN,NaN,NaN,NaN,NaN,NaN,NaN
17-Hydroxyprogesterone,HMDB00374,1.965,3,ddd,13.33 4.77 3.18,0.0564,0,[H][C@@]12CC[C@](O)(C(C)=O)[C@@]1(C)CC[C@@]1([H])[C@@]2([H])CCC2=CC(=O)CC[C@]12C,InChIKey=DBPWSSGDRRHUNT-CEGNMAFCSA-N,7.36,-1.4,NaN,0.0013,NaN,NA,NaN,NaN,NaN,NaN,NaN,NaN,NaN,NaN
Deoxycorticosterone,HMDB00016,1.965,1,td,NA,0.0778,0,[H][C@@]12CC[C@H](C(=O)CO)[C@@]1(C)CC[C@@]1([H])[C@@]2([H])CCC2=CC(=O)CC[C@]12C,InChIKey=ZESRJSPZRDMNHY-YFWFAHHUSA-N,-1.9,-2.7,NaN,NaN,NaN,NaN,NaN,NaN,NaN,NaN,NaN,NaN,NaN,NaN
N-Formyl-L-methionine,HMDB01015,1.965,1,m,NA,0.0533,-1,CSCC[C@@H](NC=O)C(O)=O,InChIKey=PYUSHNKNPOHWEZ-RXMQYKEDSA-N,1.23,-0.95,NaN,NaN,NaN,NaN,NaN,NaN,NaN,NaN,NaN,NaN,NaN,NaN
Verapamil,HMDB01850,1.965,1,m,NA,0.0303,1,COC1=C(OC)C=C(CCN(C)CCCC(C#N)(C(C)C)C2=CC(OC)=C(OC)C=C2)C=C1,InChIKey=SGTNSNPWRIOYBX-UHFFFAOYSA-N,12.45,-0.16,NaN,NaN,NaN,NaN,NaN,NaN,NaN,NaN,NaN,NaN,NaN,NaN
Lithocholic acid,HMDB00761,1.975,2,m,NA,0.0426,-1,[H][C@@]12CC[C@H]([C@H](C)CCC(O)=O)[C@@]1(C)CC[C@@]1([H])[C@@]2([H])CCC2C[C@H](O)CC[C@]12C,InChIKey=SMEROWZSTRWXGI-YPLGJCPNSA-N,1.77,-1.8,0.33,NaN,NaN,NaN,NaN,NaN,NaN,NaN,NaN,NaN,NaN,NaN
Taurocholic acid,HMDB00036,1.975,2,m,NA,0.0744,-1,[H][C@@]12C[C@H](O)CCC1(C)C1C[C@H](O)C3(C)C(CCC3C1[C@H](O)C2)C(C)CCC(=O)NCCS(O)(=O)=O,InChIKey=WBWWGRHZICKQGZ-BKXUXKPJSA-N,19.03,-2.8,0.38,NaN,NaN,NaN,NaN,NaN,NaN,NaN,NaN,NaN,NaN,NaN
Prostaglandin E2,HMDB01220,1.975,3,m,NA,0.0391,-1,CCCCC[C@H](O)\C=C\[C@H]1[C@H](O)CC(=O)[C@@H]1C\C=C/CCCC(O)=O,InChIKey=XEYBRNLFEZDVAW-ARSRFYASSA-N,3.84,-3.2,3.7,NaN,NaN,NaN,NA,NaN,NaN,NaN,NaN,NaN,NaN,NaN
7-Dehydrocholesterol,HMDB00032,1.975,4,m,NA,0.0824,0,[H][C@@]12CC[C@H]([C@H](C)CCCC(C)C)[C@@]1(C)CC[C@@]1([H])C2=CC=C2C[C@@H](O)CC[C@]12C,InChIKey=UCTLRSWJYQTBFZ-DDPQNLDTSA-N,11.25,4.99,5,0.029,NaN,NaN,0,NaN,NaN,NaN,NaN,NaN,NaN,NaN
11a-Hydroxyprogesterone,HMDB00920,1.975,1,dt,13.86 4.46,0.0633,0,[H][C@@]12CCC(C(C)=O)[C@@]1(C)C[C@@H](O)[C@@]1([H])[C@@]2([H])CCC2=CC(=O)CC[C@]12C,InChIKey=BFZHCUBIASXHPK-ODYOLWGQSA-N,16.38,10.67,NA,NA,NA,NA,NA,NA,NA,NA,NA,NA,NA,NA
Delta-Hexanolactone,HMDB00453,1.975,1,m,NA,0.057,0,CC1CCCC(=O)O1,InChIKey=RZTOWFMDBDPERY-UHFFFAOYSA-N,1.86,5.14,NA,NA,NA,NA,NA,NA,NA,NA,NA,NA,NA,NA
17a-Hydroxypregnenolone,HMDB00363,1.975,1,m,NA,0.0282,0,[H][C@@]12CC[C@](O)(C(C)=O)[C@@]1(C)CC[C@@]1([H])[C@@]2([H])CC=C2C[C@@H](O)CC[C@]12C,InChIKey=JERGUCIJOXJXHF-TVWVXWENSA-N,4.56,-0.76,NaN,NaN,NaN,NaN,NaN,NaN,NaN,NaN,NaN,NaN,NaN,NaN
5beta-Coprostanol,HMDB00577,1.975,2,m,NA,0.0213,0,[H][C@@]1(CC[C@@]2([H])[C@]3([H])CC[C@]4([H])C[C@@H](O)CC[C@]4(C)[C@@]3([H])CC[C@]12C)[C@H](C)CCCC(C)C,InChIKey=QYIXCDOBOSTCEI-NWKZBHTNSA-N,4.42,-7.4,NaN,NaN,NaN,NaN,NaN,NaN,NaN,NaN,NaN,NaN,NaN,NaN
5-Methylcytidine,HMDB00982,1.975,3,s,NA,1,0,CC1=CN([C@@H]2O[C@H](CO)[C@@H](O)[C@H]2O)C(=O)N=C1N,InChIKey=ZAYHVCMSTBRABG-JXOAFFINSA-N,4.13,5.53,NaN,NaN,NaN,NaN,NaN,NaN,NaN,NaN,NaN,NaN,NaN,NaN
Alpha-Terpineol,HMDB04043,1.975,4,m,NA,0.1329,0,CC1=CC[C@@H](CC1)C(C)(C)O,InChIKey=WUOACPNHFRMFPN-VIFPVBQESA-N,1.86,-6.7,NaN,NaN,NaN,NaN,NaN,NaN,NaN,NaN,NaN,NaN,NaN,NaN
Androstanedione,HMDB00899,1.975,1,m,NA,0.0555,0,[H][C@@]12CCC(=O)[C@@]1(C)CC[C@@]1([H])[C@@]2([H])CC[C@@]2([H])CC(=O)CC[C@]12C,InChIKey=RAJWOBJTTGJROA-WZNAKSSCSA-N,1.86,-3,NaN,NaN,NaN,NaN,NaN,NaN,NaN,NaN,NaN,NaN,NaN,NaN
Elaidic acid,HMDB00573,1.975,13,m,NA,0.2687,-1,CCCCCCCC\C=C\CCCCCCCC(O)=O,InChIKey=ZQPPMHVWECSIRJ-MDZDMXLPSA-N,2.91,-3,NaN,NaN,NaN,NaN,NaN,NaN,NaN,NaN,NaN,NaN,NaN,NaN
Epietiocholanolone,HMDB00546,1.975,1,m,NA,0.2264,0,[H][C@@]12CCC(=O)[C@@]1(C)CC[C@@]1([H])[C@@]2([H])CC[C@]2([H])C[C@@H](O)CC[C@]12C,InChIKey=QGXBDMJGAMFCBF-XRJZGPCZSA-N,4.14,-2.8,NaN,NaN,NaN,NaN,NaN,NaN,NaN,NaN,NaN,NaN,NaN,NaN
Ergocalciferol,HMDB00900,1.975,3,m,NA,0.0077,0,CC(C)[C@@H](C)\C=C\[C@@H](C)[C@H]1CC[C@@]2([H])\C(CCC[C@]12C)=C\C=C1\C[C@@H](O)CCC1=C,InChIKey=MECHNRXZTMCUDQ-RKHKHRCZSA-N,3.25,-6.3,NaN,NaN,NaN,0.008,NaN,NaN,NaN,NaN,NaN,NaN,NaN,NaN
Nutriacholic acid,HMDB00467,1.975,4,m,NA,0.1379,-1,[H][C@@]12CCC([C@@H](C)CCC(O)=O)[C@@]1(C)CC[C@@]1([H])[C@@]2([H])C(=O)C[C@]2([H])C[C@H](O)CC[C@]12C,InChIKey=DXOCDBGWDZAYRQ-QPVZPPSOSA-N,3.78,-0.78,NaN,NaN,NaN,NaN,NaN,NaN,NaN,NaN,NaN,NaN,NaN,NaN
Prostaglandin E1,HMDB01442,1.975,1,m,NA,0.0148,-1,CCCCC[C@H](O)\C=C\[C@H]1[C@H](O)CC(=O)[C@@H]1CCCCCCC(O)=O,InChIKey=GMVPRGQOIOIIMI-DWKJAMRDSA-N,0.83,4.95,NaN,NaN,NaN,NaN,NaN,NaN,NaN,NaN,NaN,NaN,NaN,NaN
L-Isoleucine,HMDB00172,1.983,1,m,NA,NA,0,CC[C@H](C)[C@H](N)C(O)=O,InChIKey=AGPKZVBTJJNPAG-WHFBIAKZSA-N,1.7,9.29,61.35,1.787933333,NaN,NA,7.134,NaN,NaN,NaN,NaN,NaN,NaN,NaN
Androstenedione,HMDB00053,1.985,8,m,NA,0.0836,0,[H][C@@]12CCC(=O)[C@@]1(C)CC[C@@]1([H])[C@@]2([H])CCC2=CC(=O)CC[C@]12C,InChIKey=AEMFNILZOJDQLW-QAGGRKNESA-N,18.2,-7.4,0.0059,0.0068,NaN,NaN,NaN,NaN,NaN,NaN,NaN,NaN,NaN,NaN
Menthol,HMDB03352,1.985,1,ddd,NA,0.0771,0,CC(C)[C@@H]1CC[C@@H](C)C[C@H]1O,InChIKey=NOOLISFMXDJSKH-KXUCPTDWSA-N,14.58,-3,0.064,NaN,NaN,NaN,NaN,NaN,NaN,NaN,NaN,NaN,NaN,NaN
N-Acetylaspartylglutamic acid,HMDB01067,1.985,4,m,NA,1,-3,CC(=O)NC(CC(O)=O)C(=O)NC(CCC(O)=O)C(O)=O,InChIKey=OPVPGKGADVGKTG-UHFFFAOYSA-N,0.83,4.95,4.89,NaN,NaN,NaN,3.375,NaN,NaN,NaN,NaN,NaN,NaN,NaN
5alpha-Cholestanol,HMDB00908,1.985,1,td,12.56 3.28,0.0765,0,[H][C@@]1(CC[C@@]2([H])[C@]3([H])CC[C@@]4([H])C[C@@H](O)CC[C@]4(C)[C@@]3([H])CC[C@]12C)[C@H](C)CCCC(C)C,InChIKey=QYIXCDOBOSTCEI-QCYZZNICSA-N,4.05,-3,9.26,NaN,NaN,NaN,NaN,NaN,NaN,NaN,NaN,NaN,NaN,NaN
Vaccenic acid,HMDB03231,1.985,5,m,NA,0.2901,-1,CCCCCC\C=C/CCCCCCCCCC(O)=O,InChIKey=UWHZIFQPPBDJPM-FPLPWBNLSA-N,11.41,-2.2,10.7,NaN,NaN,NaN,NaN,NaN,NaN,NaN,NaN,NaN,NaN,NaN
2-Phenylbutyric acid,HMDB00329,1.985,7,m,NA,0.0759,-1,CCC(C(O)=O)C1=CC=CC=C1,InChIKey=OFJWFSNDPCAWDK-UHFFFAOYSA-N,3.35,-0.18,NA,NA,NA,NA,NA,NA,NA,NA,NA,NA,NA,NA
Acetaminophen,HMDB01859,1.985,1,s,NA,1,0,CC(=O)NC1=CC=C(O)C=C1,InChIKey=RZVAJINKPMORJF-UHFFFAOYSA-N,14.23,4.95,NaN,8.2,NaN,NaN,11,NaN,NaN,NaN,NaN,NaN,NaN,NaN
Glycylproline,HMDB00721,1.985,1,d,0.16,0.1463,0,NCC(=O)N1CCCC1C(O)=O,InChIKey=KZNQNBZMBZJQJO-UHFFFAOYSA-N,2.78,8.78,NaN,0.4,NaN,NaN,NaN,NaN,NaN,NaN,NaN,NaN,NaN,NaN
N-Acetyl-L-methionine,HMDB11745,1.985,9,m,NA,0.0334,-1,CSCCC(NC(C)=O)C(O)=O,InChIKey=XUYPXLNMDZIRQH-UHFFFAOYSA-N,1.86,-6.7,NaN,NaN,NaN,NaN,NaN,NaN,NaN,NaN,NaN,NaN,NaN,NaN
Methylglutaric acid,HMDB00752,1.99,2,m,NA,0.5278,-2,CC(CC(O)=O)CC(O)=O,InChIKey=XJMMNTGIMDZPMU-UHFFFAOYSA-N,4.48,4.98,NaN,1.6,NaN,NaN,NaN,NaN,NaN,NaN,NaN,NaN,NaN,NaN
Pregnenolone sulfate,HMDB00774,1.995,1,m,NA,0.0043,-1,[H][C@@]12CC[C@H](C(C)=O)[C@@]1(C)CC[C@@]1([H])[C@@]2([H])CC=C2CC(CC[C@]12C)OS(O)(=O)=O,InChIKey=DIJBBUIOWGGQOP-OZIWPBGVSA-N,-0.99,5.01,0.13,NaN,NaN,NaN,NaN,NaN,NaN,NaN,NaN,NaN,NaN,NaN
L-2-Hydroxyglutaric acid,HMDB00694,1.995,1,m,NA,0.6392,-2,O[C@@H](CCC(O)=O)C(O)=O,InChIKey=HWXBTNAVRSUOJR-VKHMYHEASA-N,1.07,-3.6,1.5,17.6,NaN,NaN,NaN,NaN,NaN,NaN,NaN,NaN,NaN,NaN
Cholesterol,HMDB00067,1.995,4,m,NA,0.0934,0,[H][C@@]12CC[C@H]([C@H](C)CCCC(C)C)[C@@]1(C)CC[C@@]1([H])[C@@]2([H])CC=C2CC(O)CC[C@]12C,InChIKey=HVYWMOMLDIMFJA-FNOPAARDSA-N,3.17,-0.54,3567.92,NaN,NaN,NA,6.31,NaN,NaN,NaN,NaN,NaN,NaN,NaN
Benzenebutanoic acid,HMDB00543,1.995,2,tt,7.53,0.5429,-1,OC(=O)CCCC1=CC=CC=C1,InChIKey=OBKXEAXTFZPCHS-UHFFFAOYSA-N,3.47,8.99,NA,NA,NA,NA,NA,NA,NA,NA,NA,NA,NA,NA
Pteroyltriglutamic acid,HMDB01902,1.995,3,m,NA,0.0366,-4,NC1=NC(=O)C2=NC(CNC3=CC=C(C=C3)C(=O)NC(CCC(=O)NC(CCC(=O)NC(CCC(O)=O)C(O)=O)C(O)=O)C(O)=O)=CN=C2N1,InChIKey=WOLQREOUPKZMEX-UHFFFAOYSA-N,13.42,-0.26,NA,NA,NA,NA,NA,NA,NA,NA,NA,NA,NA,NA
N-Acetylputrescine,HMDB02064,1.995,1,s,NA,1,1,CC(=O)NCCCCN,InChIKey=KLZGKIDSEJWEDW-UHFFFAOYSA-N,17.45,-9.7,NaN,1.19,NaN,NaN,NaN,NaN,NaN,NaN,NaN,NaN,NaN,NaN
Aldosterone,HMDB00037,2.005,1,dd,NA,0.011,0,C[C@]12CCC(=O)C=C1CCC1C3CC[C@H](C(=O)CO)[C@]3(C[C@H](O)C21)C=O,InChIKey=PQSUYGKTWSAVDQ-SRPWZAMTSA-N,4.03,-3,6.80E-05,0.01,NaN,NA,NaN,NaN,NaN,NaN,NaN,NaN,NaN,NaN
L-Proline,HMDB00162,2.005,3,m,NA,1,0,OC(=O)[C@@H]1CCCN1,InChIKey=ONIBWKKTOPOVIA-BYPYZUCNSA-N,4.75,9.43,181.2666667,NA,NaN,NA,NA,NaN,NaN,NaN,NaN,NaN,NaN,NaN
CE(16:0),HMDB00885,2.005,2,m,NA,0.022,0,[H][C@@]1(CC[C@@]2([H])[C@]3([H])CC=C4C[C@H](CC[C@]4(C)[C@@]3([H])CC[C@]12C)OC(=O)CCCCCCCCCCCCCCC)[C@H](C)CCCC(C)C,InChIKey=BBJQPKLGPMQWBU-JADYGXMDSA-N,1.87,10,297.73,NaN,NaN,NaN,NaN,NaN,NaN,NaN,NaN,NaN,NaN,NaN
Isovalerylalanine,HMDB00747,2.005,1,ddd,13.84 7.19 7.01,0.1021,-1,CC(C)CC(=O)N[C@@H](C)C(O)=O,InChIKey=OJPSNARFDYTAEN-LURJTMIESA-N,4.65,-0.91,NA,NA,NA,NA,NA,NA,NA,NA,NA,NA,NA,NA
Isovalerylglutamic acid,HMDB00726,2.005,1,m,NA,0.0983,-2,CC(C)CC(=O)N[C@@H](CCC(O)=O)C(O)=O,InChIKey=HCVIJONZMYVLAW-ZETCQYMHSA-N,1.12,4.95,NA,NA,NA,NA,NA,NA,NA,NA,NA,NA,NA,NA
17a-Estradiol,HMDB00429,2.005,1,m,NA,0.0348,0,[H][C@@]12CC[C@@H](O)[C@@]1(C)CC[C@]1([H])C3=C(CC[C@@]21[H])C=C(O)C=C3,InChIKey=VOXZDWNPVJITMN-SFFUCWETSA-N,1.22,-6.1,NaN,2.3,NaN,NaN,NaN,NaN,NaN,NaN,NaN,NaN,NaN,NaN
3-Indolebutyric acid,HMDB02096,2.005,2,quin,7.43,0.6087,-1,OC(=O)CCCC1=CNC2=CC=CC=C12,InChIKey=JTEDVYBZBROSJT-UHFFFAOYSA-N,3.62,-3.6,NaN,NaN,NaN,NaN,NaN,NaN,NaN,NaN,NaN,NaN,NaN,NaN
4-(Methylnitrosamino)-1-(3-pyridyl)-1-butanone,HMDB11603,2.005,2,q,NA,0.053,0,CN(CCCC(=O)C1=CC=CN=C1)N=O,InChIKey=FLAQQSHRLBFIEZ-UHFFFAOYSA-N,1.86,-3,NaN,NaN,NaN,NaN,NaN,NaN,NaN,NaN,NaN,NaN,NaN,NaN
All-trans-retinoic acid,HMDB01852,2.005,2,m,NA,0.5158,-1,C\C(\C=C\C1=C(C)CCCC1(C)C)=C/C=C/C(/C)=C/C(O)=O,InChIKey=SHGAZHPCJJPHSC-YCNIQYBTSA-N,10.09,5.81,NaN,NaN,NaN,NaN,NaN,NaN,NaN,NaN,NaN,NaN,NaN,NaN
Glycylproline,HMDB00721,2.005,1,s,NA,0.1123,0,NCC(=O)N1CCCC1C(O)=O,InChIKey=KZNQNBZMBZJQJO-UHFFFAOYSA-N,2.78,8.78,NaN,0.4,NaN,NaN,NaN,NaN,NaN,NaN,NaN,NaN,NaN,NaN
N6-Acetyl-L-lysine,HMDB00206,2.005,3,s,NA,1,0,CC(=O)NCCCC[C@H](N)C(O)=O,InChIKey=DTERQYGMUDWYAZ-ZETCQYMHSA-N,9.77,-1.4,NaN,NaN,NaN,NaN,NaN,NaN,NaN,NaN,NaN,NaN,NaN,NaN
S-Adenosylhomocysteine,HMDB00939,2.005,1,m,NA,0.1264,0,N[C@@H](CCSC[C@H]1O[C@H]([C@H](O)[C@@H]1O)N1C=NC2=C(N)N=CN=C12)C(O)=O,InChIKey=ZJUKTBDSGOFHSH-WFMPWKQPSA-N,9.43,1.41,NaN,NaN,NaN,NaN,0.01,NaN,NaN,NaN,NaN,NaN,NaN,NaN