Metabolite,HMDB Name,Shift (ppm),Hs,Type,J (Hz),Height,Physiological Charge,SMILES,InChlKey,pKa (Strongest Acidic),pKa (Strongest Basic),Blood,Urine,Feces,Saliva,Cerebrospinal Fluid (CSF),Amniotic Fluid,Aqueous Humour,Ascites Fluid,Breast Milk,Lymph,Sweat,Tears
3a.6b.7b-Trihydroxy-5b-cholanoic acid,HMDB00415,2.095,1,br. s.,NA,0.0881,-1,[H][C@@]12CC[C@H]([C@H](C)CCC(O)=O)[C@@]1(C)CC[C@@]1([H])[C@@]2([H])[C@@H](O)[C@@H](O)[C@]2([H])C[C@H](O)CC[C@]12C,InChIKey=DKPMWHFRUGMUKF-CRKPLTDNSA-N,3.85,-3,NA,NA,NA,NA,NA,NA,NA,NA,NA,NA,NA,NA
Isovalerylglutamic acid,HMDB00726,2.095,1,m,NA,0.0712,-2,CC(C)CC(=O)N[C@@H](CCC(O)=O)C(O)=O,InChIKey=HCVIJONZMYVLAW-ZETCQYMHSA-N,1.12,4.95,NA,NA,NA,NA,NA,NA,NA,NA,NA,NA,NA,NA
Androstanedione,HMDB00899,2.095,1,m,NA,0.0841,0,[H][C@@]12CCC(=O)[C@@]1(C)CC[C@@]1([H])[C@@]2([H])CC[C@@]2([H])CC(=O)CC[C@]12C,InChIKey=RAJWOBJTTGJROA-WZNAKSSCSA-N,1.86,-3,NaN,NaN,NaN,NaN,NaN,NaN,NaN,NaN,NaN,NaN,NaN,NaN
Epietiocholanolone,HMDB00546,2.095,1,m,NA,0.1071,0,[H][C@@]12CCC(=O)[C@@]1(C)CC[C@@]1([H])[C@@]2([H])CC[C@]2([H])C[C@@H](O)CC[C@]12C,InChIKey=QGXBDMJGAMFCBF-XRJZGPCZSA-N,4.14,-2.8,NaN,NaN,NaN,NaN,NaN,NaN,NaN,NaN,NaN,NaN,NaN,NaN
N-Acetylmannosamine,HMDB01129,2.095,3,s,NA,0.8365,0,[H][C@@]1(O)O[C@H](CO)[C@@H](O)[C@H](O)[C@@H]1NC(C)=O,InChIKey=OVRNDRQMDRJTHS-OZRXBMAMSA-N,2.86,2.89,NaN,NaN,NaN,NaN,NaN,NaN,NaN,NaN,NaN,NaN,NaN,NaN
N-Acetylserine,HMDB02931,2.095,2,s,NA,NA,-1,CC(=O)N[C@@H](CO)C(O)=O,InChIKey=JJIHLJJYMXLCOY-BYPYZUCNSA-N,11.25,-0.88,NaN,NaN,NaN,NaN,NaN,NaN,NaN,NaN,NaN,NaN,NaN,NaN
Dehydroepiandrosterone,HMDB00077,2.105,8,m,NA,0.1395,0,C[C@]12CCC3C(CC=C4C[C@@H](O)CC[C@]34C)C1CCC2=O,InChIKey=FMGSKLZLMKYGDP-INNQQZFDSA-N,1.49,9.22,0.023,0.0658,NaN,0.0033,NaN,NaN,NaN,NaN,NaN,NaN,NaN,NaN
Glycocholic acid,HMDB00138,2.105,5,m,NA,0.087,-1,[H][C@@]12CC[C@H]([C@H](C)CCC(=O)NCC(O)=O)[C@@]1(C)[C@@H](O)C[C@@]1([H])[C@@]2([H])[C@H](O)CC2C[C@H](O)CC[C@]12C,InChIKey=RFDAIACWWDREDC-MZMBZMQMSA-N,4.55,8.85,0.06,0.42,NaN,NaN,NaN,NaN,NaN,NaN,NaN,NaN,NaN,NaN
Ketoleucine,HMDB00695,2.105,1,m,NA,0.0815,-1,CC(C)CC(=O)C(O)=O,InChIKey=BKAJNAXTPSGJCU-UHFFFAOYSA-N,1.72,-0.77,30.75,NaN,NaN,NaN,5,NaN,NaN,NaN,NaN,NaN,NaN,NaN
17-Epiestriol,HMDB00356,2.105,1,m,NA,0.0617,0,C[C@]12CCC3C(CCC4=C3C=CC(O)=C4)C1C[C@@H](O)[C@H]2O,InChIKey=PROQIPRRNZUXQM-MAHASAQBSA-N,4.09,-3.5,NA,NA,NA,NA,NA,NA,NA,NA,NA,NA,NA,NA
2-Amino-3-phosphonopropionic acid,HMDB00370,2.105,1,ddd,17.22 15.05 2.45,0.3427,-1,NC(CP(O)(O)=O)C(O)=O,InChIKey=LBTABPSJONFLPO-UHFFFAOYSA-N,4.81,-0.58,NA,NA,NA,NA,NA,NA,NA,NA,NA,NA,NA,NA
Azythromycin,HMDB01916,2.105,1,m,NA,0.0163,2,CC[C@@H]1OC(=O)[C@H](C)[C@@H](O[C@@H]2C[C@](C)(OC)[C@H](O)[C@@H](C)O2)[C@@H](C)[C@H](O[C@H]2O[C@@H](C)C[C@H]([C@@H]2O)N(C)C)[C@@](C)(O)C[C@H](C)CN(C)[C@@H](C)[C@@H](O)[C@]1(C)O,InChIKey=MQTOSJVFKKJCRP-HHZDEWPHSA-N,3.84,1.99,NA,NA,NA,NA,NA,NA,NA,NA,NA,NA,NA,NA
16-a-Hydroxypregnenolone,HMDB00315,2.105,4,m,NA,1,0,[H][C@@]12C[C@@H](O)[C@H](C(C)=O)[C@@]1(C)CC[C@@]1([H])[C@@]2([H])CC=C2C[C@@H](O)CC[C@]12C,InChIKey=ZAKJZPQDUPCXSD-YRWKUUEZSA-N,18.3,-0.16,NaN,NaN,NaN,NaN,NaN,NaN,NaN,NaN,NaN,NaN,NaN,NaN
17a-Estradiol,HMDB00429,2.105,1,td,NA,0.0364,0,[H][C@@]12CC[C@@H](O)[C@@]1(C)CC[C@]1([H])C3=C(CC[C@@]21[H])C=C(O)C=C3,InChIKey=VOXZDWNPVJITMN-SFFUCWETSA-N,1.22,-6.1,NaN,2.3,NaN,NaN,NaN,NaN,NaN,NaN,NaN,NaN,NaN,NaN
17a-Hydroxypregnenolone,HMDB00363,2.105,5,m,NA,0.943,0,[H][C@@]12CC[C@](O)(C(C)=O)[C@@]1(C)CC[C@@]1([H])[C@@]2([H])CC=C2C[C@@H](O)CC[C@]12C,InChIKey=JERGUCIJOXJXHF-TVWVXWENSA-N,4.56,-0.76,NaN,NaN,NaN,NaN,NaN,NaN,NaN,NaN,NaN,NaN,NaN,NaN
2-Hydroxyestradiol,HMDB00338,2.105,1,m,NA,0.0321,0,[H][C@@]12CC[C@H](O)[C@@]1(C)CC[C@]1([H])C3=C(CC[C@@]21[H])C=C(O)C(O)=C3,InChIKey=DILDHNKDVHLEQB-XSSYPUMDSA-N,1.86,-6.7,NaN,NaN,NaN,NaN,NaN,NaN,NaN,NaN,NaN,NaN,NaN,NaN
Chenodeoxycholic acid,HMDB00518,2.107,1,ddd,13.84 9.67 6.81,0.0579,-1,[H][C@@]1(CC[C@@]2([H])[C@]3([H])[C@H](O)C[C@]4([H])C[C@H](O)CC[C@]4(C)[C@@]3([H])CC[C@]12C)[C@H](C)CCC(O)=O,InChIKey=RUDATBOHQWOJDD-BSWAIDMHSA-N,2.15,-4.1,1.165,NaN,NaN,NaN,NaN,NaN,NaN,NaN,NaN,NaN,NaN,NaN
Androstenedione,HMDB00053,2.115,4,m,NA,0.0964,0,[H][C@@]12CCC(=O)[C@@]1(C)CC[C@@]1([H])[C@@]2([H])CCC2=CC(=O)CC[C@]12C,InChIKey=AEMFNILZOJDQLW-QAGGRKNESA-N,18.2,-7.4,0.0059,0.0068,NaN,NaN,NaN,NaN,NaN,NaN,NaN,NaN,NaN,NaN
Estriol,HMDB00153,2.115,1,m,NA,0.0505,0,[H][C@@]12C[C@@H](O)[C@H](O)[C@@]1(C)CC[C@]1([H])C3=C(CC[C@@]21[H])C=C(O)C=C3,InChIKey=PROQIPRRNZUXQM-ZXXIGWHRSA-N,2.84,5.54,0.006,NaN,NaN,NaN,NaN,0.0023,NaN,NaN,NaN,NaN,NaN,NaN
Deoxycholic acid,HMDB00626,2.115,1,ddd,13.86 9.40 7.06,0.0427,-1,[H][C@@]12CC[C@H]([C@H](C)CCC(O)=O)[C@@]1(C)[C@@H](O)C[C@@]1([H])[C@@]2([H])CC[C@]2([H])C[C@H](O)CC[C@]12C,InChIKey=KXGVEGMKQFWNSR-LLQZFEROSA-N,4.73,-2,0.33,NaN,NaN,NaN,NaN,NaN,NaN,NaN,NaN,NaN,NaN,NaN
Prostaglandin E2,HMDB01220,2.115,1,m,NA,0.011,-1,CCCCC[C@H](O)\C=C\[C@H]1[C@H](O)CC(=O)[C@@H]1C\C=C/CCCC(O)=O,InChIKey=XEYBRNLFEZDVAW-ARSRFYASSA-N,3.84,-3.2,3.7,NaN,NaN,NaN,NA,NaN,NaN,NaN,NaN,NaN,NaN,NaN
7-Dehydrocholesterol,HMDB00032,2.115,2,m,NA,0.0675,0,[H][C@@]12CC[C@H]([C@H](C)CCCC(C)C)[C@@]1(C)CC[C@@]1([H])C2=CC=C2C[C@@H](O)CC[C@]12C,InChIKey=UCTLRSWJYQTBFZ-DDPQNLDTSA-N,11.25,4.99,5,0.029,NaN,NaN,0,NaN,NaN,NaN,NaN,NaN,NaN,NaN
3a.6a.7b-Trihydroxy-5b-cholanoic acid,HMDB00364,2.115,1,m,NA,0.069,-1,[H][C@@]12CC[C@H]([C@H](C)CCC(O)=O)[C@@]1(C)CC[C@@]1([H])[C@@]2([H])[C@@H](O)[C@H](O)[C@]2([H])C[C@H](O)CC[C@]12C,InChIKey=DKPMWHFRUGMUKF-NTPBNISXSA-N,1.08,-3.4,NA,NA,NA,NA,NA,NA,NA,NA,NA,NA,NA,NA
5'-Methylthioadenosine,HMDB01173,2.115,33,s,NA,1,0,CSC[C@H]1O[C@H]([C@H](O)[C@@H]1O)N1C=NC2=C1N=CN=C2N,InChIKey=WUUGFSXJNOTRMR-IOSLPCCCSA-N,10.19,-3,NaN,NaN,NaN,NaN,NaN,NaN,NaN,NaN,NaN,NaN,NaN,NaN
N-Acetyl-L-methionine,HMDB11745,2.115,20,s,NA,1,-1,CSCCC(NC(C)=O)C(O)=O,InChIKey=XUYPXLNMDZIRQH-UHFFFAOYSA-N,1.86,-6.7,NaN,NaN,NaN,NaN,NaN,NaN,NaN,NaN,NaN,NaN,NaN,NaN
N-Formyl-L-methionine,HMDB01015,2.115,4,m,NA,1,-1,CSCC[C@@H](NC=O)C(O)=O,InChIKey=PYUSHNKNPOHWEZ-RXMQYKEDSA-N,1.23,-0.95,NaN,NaN,NaN,NaN,NaN,NaN,NaN,NaN,NaN,NaN,NaN,NaN
Prostaglandin D2,HMDB01403,2.125,5,m,NA,0.0375,-1,CCCCC[C@H](O)\C=C\[C@@H]1[C@@H](C\C=C/CCCC(O)=O)[C@@H](O)CC1=O,InChIKey=BHMBVRSPMRCCGG-OUTUXVNYSA-N,3.65,5.53,2.00E-04,NaN,NaN,NaN,NaN,NaN,NaN,NaN,NaN,NaN,NaN,NaN
Folic acid,HMDB00121,2.125,2,m,NA,0.2143,-2,NC1=NC(=O)C2=NC(CNC3=CC=C(C=C3)C(=O)N[C@@H](CCC(O)=O)C(O)=O)=CN=C2N1,InChIKey=OVBPIULPVIDEAO-LBPRGKRZSA-N,11.25,-3.7,0.039333333,NA,NaN,NaN,0.053,NaN,NaN,NaN,NaN,NaN,NaN,NaN
13-cis-Retinoic acid,HMDB06219,2.125,3,d,1.05,0.1969,-1,C\C(\C=C\C1=C(C)CCCC1(C)C)=C/C=C/C(/C)=C\C(O)=O,InChIKey=SHGAZHPCJJPHSC-XFYACQKRSA-N,0.38,-3.7,NaN,NaN,NaN,NaN,NaN,NaN,NaN,NaN,NaN,NaN,NaN,NaN
Androstanedione,HMDB00899,2.125,1,m,NA,0.144,0,[H][C@@]12CCC(=O)[C@@]1(C)CC[C@@]1([H])[C@@]2([H])CC[C@@]2([H])CC(=O)CC[C@]12C,InChIKey=RAJWOBJTTGJROA-WZNAKSSCSA-N,1.86,-3,NaN,NaN,NaN,NaN,NaN,NaN,NaN,NaN,NaN,NaN,NaN,NaN
Dimethylsulfide,HMDB02303,2.125,4,s,NA,0.9923,0,CSC,InChIKey=QMMFVYPAHWMCMS-UHFFFAOYSA-N,2.45,-4.2,NaN,NaN,NaN,NaN,0,NaN,NaN,NaN,NaN,NaN,NaN,NaN
Methylsuccinic acid,HMDB01844,2.127,1,dd,14.27 9.96,0.2247,-2,CC(CC(O)=O)C(O)=O,InChIKey=WXUAQHNMJWJLTG-UHFFFAOYSA-N,3.9,6.52,NaN,2.15,NaN,8.04,NaN,NaN,NaN,NaN,NaN,NaN,NaN,NaN
L-Glutamic acid,HMDB00148,2.134,20,m,NA,NA,-1,N[C@@H](CCC(O)=O)C(O)=O,InChIKey=WHUUTDBJXJRKMK-VKHMYHEASA-N,4.95,-5.5,97.4,NA,NaN,NA,10.715,NaN,NaN,NaN,NaN,NaN,NaN,NaN
Cortisone,HMDB02802,2.135,2,m,NA,0.1988,0,[H][C@@]12CC[C@](O)(C(=O)CO)[C@@]1(C)CC(=O)[C@@]1([H])[C@@]2([H])CCC2=CC(=O)CC[C@]12C,InChIKey=MFYSYFVPBJMHGN-ZPOLXVRWSA-N,17.79,2.77,0.0624,0.011,NaN,NaN,NaN,NaN,NaN,NaN,NaN,NaN,NaN,NaN
2-Pyrrolidinone,HMDB02039,2.135,1,m,NA,0.7337,0,O=C1CCCN1,InChIKey=HNJBEVLQSNELDL-UHFFFAOYSA-N,19.4,-4.2,0.0975,NaN,NaN,NaN,NaN,NaN,NaN,NaN,NaN,NaN,NaN,NaN
Iso-Valeraldehyde,HMDB06478,2.135,1,m,NA,0.0372,0,CC(C)CC=O,InChIKey=YGHRJJRRZDOVPD-UHFFFAOYSA-N,1.89,-6.6,0.11,NaN,NaN,NaN,14.9,NaN,NaN,NaN,NaN,NaN,NaN,NaN
Pregnenolone sulfate,HMDB00774,2.135,6,m,NA,0.1457,-1,[H][C@@]12CC[C@H](C(C)=O)[C@@]1(C)CC[C@@]1([H])[C@@]2([H])CC=C2CC(CC[C@]12C)OS(O)(=O)=O,InChIKey=DIJBBUIOWGGQOP-OZIWPBGVSA-N,-0.99,5.01,0.13,NaN,NaN,NaN,NaN,NaN,NaN,NaN,NaN,NaN,NaN,NaN
Cholesterol sulfate,HMDB00653,2.135,1,m,NA,0.0502,-1,[H][C@@]12CC[C@H]([C@H](C)CCCC(C)C)[C@@]1(C)CC[C@@]1([H])[C@@]2([H])CC=C2C[C@H](CC[C@]12C)OS(O)(=O)=O,InChIKey=BHYOQNUELFTYRT-DPAQBDIFSA-N,1.22,-1.3,5.4,NaN,NaN,NaN,NaN,NaN,NaN,NaN,NaN,NaN,NaN,NaN
Alpha-Tocopherol,HMDB01893,2.135,4,s,NA,1,0,CC(C)CCC[C@@H](C)CCC[C@@H](C)CCC[C@]1(C)CCC2=C(O1)C(C)=C(C)C(O)=C2C,InChIKey=GVJHHUAWPYXKBD-IEOSBIPESA-N,10.07,-4.2,30.94,NaN,NaN,0.082,NaN,NaN,NaN,NaN,NaN,NaN,NaN,NaN
SM(d18:1/18:0),HMDB01348,2.135,2,m,NA,0.0124,0,CCCCCCCCCCCCCCCCCC(=O)N[C@@]([H])(COP(O)(=O)OCC[N+](C)(C)C)[C@]([H])(O)\C=C\CCCCCCCCCCCCC,InChIKey=LKQLRGMMMAHREN-YJFXYUILSA-O,1.86,-6.7,157.1,NaN,NaN,0.121,NaN,NaN,NaN,NaN,NaN,NaN,NaN,NaN
16b-Hydroxyestradiol,HMDB00347,2.135,1,m,NA,0.0504,0,[H][C@@]12C[C@H](O)[C@H](O)[C@@]1(C)CC[C@]1([H])C3=C(CC[C@@]21[H])C=C(O)C=C3,InChIKey=PROQIPRRNZUXQM-ZMSHIADSSA-N,11.47,-3.8,NaN,NaN,NaN,NaN,NaN,NaN,NaN,NaN,NaN,NaN,NaN,NaN
Geraniol,HMDB05812,2.135,3,br. s.,NA,0.8034,0,CC(C)=CCC\C(C)=C/CO,InChIKey=GLZPCOQZEFWAFX-YFHOEESVSA-N,1.87,10,NaN,NaN,NaN,NaN,NaN,NaN,NaN,NaN,NaN,NaN,NaN,NaN
Menadione,HMDB01892,2.135,3,s,NA,0.8994,0,CC1=CC(=O)C2=CC=CC=C2C1=O,InChIKey=MJVAVZPDRWSRRC-UHFFFAOYSA-N,16.84,-3.7,NaN,NaN,NaN,NaN,NaN,NaN,NaN,NaN,NaN,NaN,NaN,NaN
Perillyl alcohol,HMDB03634,2.135,4,m,NA,0.0906,0,CC(=C)C1CCC(CO)=CC1,InChIKey=NDTYTMIUWGWIMO-UHFFFAOYSA-N,14.58,-3,NaN,NaN,NaN,NaN,NaN,NaN,NaN,NaN,NaN,NaN,NaN,NaN
L-Glutamine,HMDB00641,2.14,2,m,NA,0.8706,0,N[C@@H](CCC(N)=O)C(O)=O,InChIKey=ZDXPYRJPNDTMRX-VKHMYHEASA-N,2.97,-1.5,529.6666667,30.04,NaN,NA,501,NaN,NaN,NaN,NaN,NaN,NaN,NaN
Progesterone,HMDB01830,2.145,3,s,NA,1,0,[H][C@@]12CC[C@H](C(C)=O)[C@@]1(C)CC[C@@]1([H])[C@@]2([H])CCC2=CC(=O)CC[C@]12C,InChIKey=RJKFOVLPORLFTN-LEKSSAKUSA-N,11.17,-6.2,0.0025,NaN,NaN,NaN,NaN,NaN,NaN,NaN,NaN,NaN,NaN,NaN
Succinylacetone,HMDB00635,2.145,1,s,NA,0.9869,-1,CC(=O)CC(=O)CCC(O)=O,InChIKey=WYEPBHZLDUPIOD-UHFFFAOYSA-N,4.02,-1.4,0.0815,NaN,NaN,NaN,NaN,0.003,NaN,NaN,NaN,NaN,NaN,NaN
Taurocholic acid,HMDB00036,2.145,1,td,NA,0.0722,-1,[H][C@@]12C[C@H](O)CCC1(C)C1C[C@H](O)C3(C)C(CCC3C1[C@H](O)C2)C(C)CCC(=O)NCCS(O)(=O)=O,InChIKey=WBWWGRHZICKQGZ-BKXUXKPJSA-N,19.03,-2.8,0.38,NaN,NaN,NaN,NaN,NaN,NaN,NaN,NaN,NaN,NaN,NaN
L-Acetylcarnitine,HMDB00201,2.145,3,s,NA,0.4658,0,CC(=O)OC(CC([O-])=O)C[N+](C)(C)C,InChIKey=RDHQFKQIGNGIED-UHFFFAOYSA-N,4.95,-2.2,5.48,NaN,NaN,0.973,NaN,NaN,NaN,NaN,NaN,NaN,NaN,NaN
Isovalerylalanine,HMDB00747,2.145,2,m,NA,0.2914,-1,CC(C)CC(=O)N[C@@H](C)C(O)=O,InChIKey=OJPSNARFDYTAEN-LURJTMIESA-N,4.65,-0.91,NA,NA,NA,NA,NA,NA,NA,NA,NA,NA,NA,NA
16a-Hydroxyestrone,HMDB00335,2.145,2,td,NA,0.0173,0,[H][C@@]12C[C@@H](O)C(=O)[C@@]1(C)CC[C@]1([H])C3=C(CC[C@@]21[H])C=C(O)C=C3,InChIKey=WPOCIZJTELRQMF-QFXBJFAPSA-N,4.48,9.66,NaN,NaN,NaN,NaN,NaN,NaN,NaN,NaN,NaN,NaN,NaN,NaN
16-a-Hydroxypregnenolone,HMDB00315,2.145,1,ddd,NA,0.0309,0,[H][C@@]12C[C@@H](O)[C@H](C(C)=O)[C@@]1(C)CC[C@@]1([H])[C@@]2([H])CC=C2C[C@@H](O)CC[C@]12C,InChIKey=ZAKJZPQDUPCXSD-YRWKUUEZSA-N,18.3,-0.16,NaN,NaN,NaN,NaN,NaN,NaN,NaN,NaN,NaN,NaN,NaN,NaN
D-Glutamine,HMDB03423,2.145,2,m,6.85 5.75 2.94,0.5411,0,N[C@H](CCC(N)=O)C(O)=O,InChIKey=ZDXPYRJPNDTMRX-GSVOUGTGSA-N,14.58,-3,NaN,NaN,NaN,NaN,NaN,NaN,NaN,NaN,NaN,NaN,NaN,NaN
N-Acetyl-L-methionine,HMDB11745,2.145,6,m,NA,0.0306,-1,CSCCC(NC(C)=O)C(O)=O,InChIKey=XUYPXLNMDZIRQH-UHFFFAOYSA-N,1.86,-6.7,NaN,NaN,NaN,NaN,NaN,NaN,NaN,NaN,NaN,NaN,NaN,NaN
Butyric acid,HMDB00039,2.155,28,t,7.33,0.6406,-1,CCCC(O)=O,InChIKey=FERIUCNNQQJTOY-UHFFFAOYSA-N,4.08,4.99,1,21.0655,NaN,586.59,1.4,NaN,NaN,NaN,NaN,NaN,NaN,NaN
Homocysteine,HMDB00742,2.155,1,m,14.86 14.70 7.47,0.3794,0,NC(CCS)C(O)=O,InChIKey=FFFHZYDWPBMWHY-UHFFFAOYSA-N,12.58,4.46,9.596666667,NaN,NaN,4.76,NaN,NaN,NaN,NaN,NaN,NaN,NaN,NaN
4-Hydroxyproline,HMDB00725,2.155,2,ddd,14.06 10.07 4.21,0.7515,0,O[C@H]1CN[C@@H](C1)C(O)=O,InChIKey=PMMYEEVYMWASQN-DMTCNVIQSA-N,13.86,4,12.4,NA,NaN,0.93,NaN,NaN,NaN,NaN,NaN,NaN,NaN,NaN
2-Methoxyestrone,HMDB00010,2.155,1,m,NA,0.0178,0,[H][C@@]12CCC(=O)[C@@]1(C)CC[C@]1([H])C3=C(CC[C@@]21[H])C=C(O)C(OC)=C3,InChIKey=WHEUWNKSCXYKBU-QPWUGHHJSA-N,1.87,10,NaN,0.005,NaN,NaN,NaN,NaN,NaN,NaN,NaN,NaN,NaN,NaN
Butanone,HMDB00474,2.155,2,s,NA,1,0,CCC(C)=O,InChIKey=ZWEHNKRNPOVVGH-UHFFFAOYSA-N,2.03,-3.7,NaN,5.5,NaN,NaN,NaN,NaN,NaN,NaN,NaN,NaN,NaN,NaN
Taurodeoxycholic acid,HMDB00896,2.155,1,m,NA,0.1062,-1,[H][C@@]1(CC[C@@]2([H])[C@]3([H])CC[C@]4([H])C[C@H](O)CC[C@]4(C)[C@@]3([H])C[C@H](O)[C@]12C)[C@H](C)CCC(=O)NCCS(O)(=O)=O,InChIKey=AWDRATDZQPNJFN-VAYUFCLWSA-N,1.86,-6.7,NaN,NaN,NaN,NaN,NaN,NaN,NaN,NaN,NaN,NaN,NaN,NaN
Corticosterone,HMDB01547,2.165,1,dt,13.46 4.71,0.0227,0,[H][C@@]12CC[C@H](C(=O)CO)[C@@]1(C)C[C@H](O)[C@@]1([H])[C@@]2([H])CCC2=CC(=O)CC[C@]12C,InChIKey=OMFXVFTZEKFJBZ-HJTSIMOOSA-N,2.79,-0.13,0.027,NaN,NaN,NaN,NaN,NaN,NaN,NaN,NaN,NaN,NaN,NaN
L-Cystathionine,HMDB00099,2.165,2,m,NA,0.2625,0,N[C@@H](CCSC[C@H](N)C(O)=O)C(O)=O,InChIKey=ILRYLPWNYFXEMH-WHFBIAKZSA-N,14.58,-3,0.2275,1.69,NaN,NaN,NaN,NaN,NaN,NaN,NaN,NaN,NaN,NaN
Glutathione,HMDB00125,2.165,13,m,NA,0.6269,-1,N[C@@H](CCC(=O)N[C@@H](CS)C(=O)NCC(O)=O)C(O)=O,InChIKey=RWSXRVCMGQZWBV-WDSKDSINSA-N,1.87,-4.7,800.5,0.065,NaN,4.41,NaN,NaN,NaN,NaN,NaN,NaN,NaN,NaN
17-alpha.20-alpha-Dihydroxypregn-4-en-3-one,HMDB11653,2.165,1,m,NA,0.0652,0,[H][C@@]12CC[C@](O)([C@H](C)O)[C@@]1(C)CC[C@@]1([H])[C@@]2([H])CCC2=CC(=O)CC[C@]12C,InChIKey=MASCESDECGBIBB-HNXXTFFGSA-N,1.86,-3,NA,NA,NA,NA,NA,NA,NA,NA,NA,NA,NA,NA
Allocystathionine,HMDB00455,2.165,2,m,NA,0.3361,0,N[C@@H](CCSCC(N)C(O)=O)C(O)=O,InChIKey=ILRYLPWNYFXEMH-ROLXFIACSA-N,11.7,-3,NA,NA,NA,NA,NA,NA,NA,NA,NA,NA,NA,NA
trans-2-Octenoic acid,HMDB01568,2.165,2,q,7.27,0.3056,-1,CCCCC\C=C\C(O)=O,InChIKey=CWMPPVPFLSZGCY-VOTSOKGWSA-N,14.58,-1.3,NA,NA,NA,NA,NA,NA,NA,NA,NA,NA,NA,NA
Undecanoic acid,HMDB00947,2.165,2,t,7.48,0.2697,-1,CCCCCCCCCCC(O)=O,InChIKey=ZDPHROOEEOARMN-UHFFFAOYSA-N,1.8,4.79,NA,NA,NA,NA,NA,NA,NA,NA,NA,NA,NA,NA
3-Methyladipic acid,HMDB00555,2.165,1,dd,14.57 8.30,0.2866,-2,C[C@@H](CCC(O)=O)CC(O)=O,InChIKey=SYEOWUNSTUDKGM-YFKPBYRVSA-N,1.19,-3.8,NaN,6.05,NaN,NaN,NaN,NaN,NaN,NaN,NaN,NaN,NaN,NaN
Cysteineglutathione disulfide,HMDB00656,2.165,15,q,NA,0.6431,-1,N[C@@H](CCC(=O)N[C@@H](CSSCC(N)C(O)=O)C(=O)NCC(O)=O)C(O)=O,InChIKey=BNRXZEPOHPEEAS-PPSBICQBSA-N,5.04,-1.4,NaN,NaN,NaN,NaN,NaN,NaN,NaN,NaN,NaN,NaN,NaN,NaN
2-Octenoic acid,HMDB00392,2.168,2,m,NA,0.3743,-1,CCCCC\C=C/C(O)=O,InChIKey=CWMPPVPFLSZGCY-SREVYHEPSA-N,4.89,-3.2,NA,NA,NA,NA,NA,NA,NA,NA,NA,NA,NA,NA
L-Methionine,HMDB00696,2.172,31,m,NA,NA,0,CSCC[C@H](N)C(O)=O,InChIKey=FFEARJCKVFRZRR-BYPYZUCNSA-N,9.99,-3,29.4,1.35075,NaN,8.81,3.4675,NaN,NaN,NaN,NaN,NaN,NaN,NaN
Tridecanoic acid,HMDB00910,2.173,2,t,7.46,0.0186,-1,CCCCCCCCCCCCC(O)=O,InChIKey=SZHOJFHSIKHZHA-UHFFFAOYSA-N,0.99,-3.5,NaN,NaN,NaN,NaN,NaN,NaN,NaN,NaN,NaN,NaN,NaN,NaN
Suberic acid,HMDB00893,2.175,4,t,7.51,1,-2,OC(=O)CCCCCCC(O)=O,InChIKey=TYFQFVWCELRYAO-UHFFFAOYSA-N,1.78,4.95,3.6,0.25,NaN,NaN,NaN,NaN,NaN,NaN,NaN,NaN,NaN,NaN
Caprylic acid,HMDB00482,2.175,4,t,7.51,0.7719,-1,CCCCCCCC(O)=O,InChIKey=WWZKQHOCKIZLMA-UHFFFAOYSA-N,11.61,9.19,5.25,NaN,NaN,NaN,NaN,NaN,NaN,NaN,NaN,NaN,NaN,NaN
Capric acid,HMDB00511,2.175,2,br. s.,NA,0.1636,-1,CCCCCCCCCC(O)=O,InChIKey=GHVNFZFCNZKVNT-UHFFFAOYSA-N,2.5,-9.7,11,NaN,NaN,NaN,NaN,NaN,NaN,NaN,NaN,NaN,NaN,NaN
L-Homoserine,HMDB00719,2.175,1,m,14.92 5.98 4.88,0.2948,0,N[C@@H](CCO)C(O)=O,InChIKey=UKAUYVFTDYCKQA-VKHMYHEASA-N,9.55,-7.4,12,NaN,NaN,NaN,NaN,NaN,NaN,NaN,NaN,NaN,NaN,NaN
Caproic acid,HMDB00535,2.175,1,t,7.47,0.728,-1,CCCCCC(O)=O,InChIKey=FUZZWVXGSFPDMH-UHFFFAOYSA-N,10.28,8.13,17,NaN,NaN,NaN,NaN,NaN,NaN,NaN,NaN,NaN,NaN,NaN
Azelaic acid,HMDB00784,2.175,4,t,7.51,1,-2,OC(=O)CCCCCCCC(O)=O,InChIKey=BDJRBEYXGGNYIS-UHFFFAOYSA-N,16.45,4.41,27,4.8,NaN,NaN,NaN,NaN,NaN,NaN,NaN,NaN,NaN,NaN
Isovalerylglutamic acid,HMDB00726,2.175,2,dd,7.41 2.97,0.2352,-2,CC(C)CC(=O)N[C@@H](CCC(O)=O)C(O)=O,InChIKey=HCVIJONZMYVLAW-ZETCQYMHSA-N,1.12,4.95,NA,NA,NA,NA,NA,NA,NA,NA,NA,NA,NA,NA
Acetylcholine,HMDB00895,2.175,2,s,NA,0.3514,1,CC(=O)OCC[N+](C)(C)C,InChIKey=OIPILFWXSMYKGL-UHFFFAOYSA-N,1.23,-0.005,NaN,NaN,NaN,8.56,NaN,NaN,NaN,NaN,NaN,NaN,NaN,NaN
Ergocalciferol,HMDB00900,2.175,1,m,NA,0.0047,0,CC(C)[C@@H](C)\C=C\[C@@H](C)[C@H]1CC[C@@]2([H])\C(CCC[C@]12C)=C\C=C1\C[C@@H](O)CCC1=C,InChIKey=MECHNRXZTMCUDQ-RKHKHRCZSA-N,3.25,-6.3,NaN,NaN,NaN,0.008,NaN,NaN,NaN,NaN,NaN,NaN,NaN,NaN
Heptanoic acid,HMDB00666,2.175,2,t,7.5,0.7948,-1,CCCCCCC(O)=O,InChIKey=MNWFXJYAOYHMED-UHFFFAOYSA-N,4.79,2.07,NaN,NaN,NaN,NaN,NaN,NaN,NaN,NaN,NaN,NaN,NaN,NaN
Lipoamide,HMDB00962,2.175,2,t,7.54,0.8672,0,NC(=O)CCCCC1CCSS1,InChIKey=FCCDDURTIIUXBY-UHFFFAOYSA-N,1.87,-4.7,NaN,NaN,NaN,NaN,NaN,NaN,NaN,NaN,NaN,NaN,NaN,NaN
Omeprazole,HMDB01913,2.175,3,s,NA,0.4083,0,COC1=CC2=C(C=C1)N=C(N2)S(=O)CC1=NC=C(C)C(OC)=C1C,InChIKey=SUBDBMMJDZJVOS-UHFFFAOYSA-N,3.26,-3.8,NaN,NaN,NaN,NaN,NaN,NaN,NaN,NaN,NaN,NaN,NaN,NaN
Pelargonic acid,HMDB00847,2.175,2,t,7.49,0.5566,-1,CCCCCCCCC(O)=O,InChIKey=FBUKVWPVBMHYJY-UHFFFAOYSA-N,3.16,5,NaN,NaN,NaN,NaN,NaN,NaN,NaN,NaN,NaN,NaN,NaN,NaN
Prostaglandin E1,HMDB01442,2.175,2,m,NA,0.0878,-1,CCCCC[C@H](O)\C=C\[C@H]1[C@H](O)CC(=O)[C@@H]1CCCCCCC(O)=O,InChIKey=GMVPRGQOIOIIMI-DWKJAMRDSA-N,0.83,4.95,NaN,NaN,NaN,NaN,NaN,NaN,NaN,NaN,NaN,NaN,NaN,NaN
Tetradecanedioic acid,HMDB00872,2.175,4,t,7.51,0.3516,-2,OC(=O)CCCCCCCCCCCCC(O)=O,InChIKey=HQHCYKULIHKCEB-UHFFFAOYSA-N,13.55,4.95,NaN,NaN,NaN,NaN,NaN,NaN,NaN,NaN,NaN,NaN,NaN,NaN
Traumatic acid,HMDB00933,2.175,4,m,NA,0.4451,-2,OC(=O)CCCCCCCC\C=C\C(O)=O,InChIKey=MAZWDMBCPDUFDJ-VQHVLOKHSA-N,7.54,-1.3,NaN,NaN,NaN,NaN,NaN,NaN,NaN,NaN,NaN,NaN,NaN,NaN
Isovalerylglycine,HMDB00678,2.177,2,d,7.44,0.3417,-1,CC(C)CC(=O)NCC(O)=O,InChIKey=ZRQXMKMBBMNNQC-UHFFFAOYSA-N,2.84,4.58,NaN,NaN,NaN,NaN,NaN,NaN,NaN,NaN,NaN,NaN,NaN,NaN
Menthol,HMDB03352,2.185,1,m,NA,0.0678,0,CC(C)[C@@H]1CC[C@@H](C)C[C@H]1O,InChIKey=NOOLISFMXDJSKH-KXUCPTDWSA-N,14.58,-3,0.064,NaN,NaN,NaN,NaN,NaN,NaN,NaN,NaN,NaN,NaN,NaN
Propionic acid,HMDB00237,2.185,2,q,7.66,0.5205,-1,CCC(O)=O,InChIKey=XBDQKXXYIPTUBI-UHFFFAOYSA-N,3.77,-0.35,0.9,2.96,NaN,3916.12,2.8,NaN,NaN,NaN,NaN,NaN,NaN,NaN
Prostaglandin E2,HMDB01220,2.185,2,t,NA,0.0598,-1,CCCCC[C@H](O)\C=C\[C@H]1[C@H](O)CC(=O)[C@@H]1C\C=C/CCCC(O)=O,InChIKey=XEYBRNLFEZDVAW-ARSRFYASSA-N,3.84,-3.2,3.7,NaN,NaN,NaN,NA,NaN,NaN,NaN,NaN,NaN,NaN,NaN
N-Acetylaspartylglutamic acid,HMDB01067,2.185,1,m,NA,0.0471,-3,CC(=O)NC(CC(O)=O)C(=O)NC(CCC(O)=O)C(O)=O,InChIKey=OPVPGKGADVGKTG-UHFFFAOYSA-N,0.83,4.95,4.89,NaN,NaN,NaN,3.375,NaN,NaN,NaN,NaN,NaN,NaN,NaN
Bilirubin,HMDB00054,2.185,3,s,NA,0.8879,-2,CC1=C(C=C)\C(NC1=O)=C\C1=C(C)C(CCC(O)=O)=C(CC2=C(CCC(O)=O)C(C)=C(N2)\C=C2/NC(=O)C(C=C)=C2C)N1,InChIKey=BPYKTIZUTYGOLE-IFADSCNNSA-N,3.6,-0.54,11.6,NA,NaN,NaN,0,NaN,NaN,NaN,NaN,NaN,NaN,NaN
Alpha-Tocopherol,HMDB01893,2.185,2,s,NA,0.4838,0,CC(C)CCC[C@@H](C)CCC[C@@H](C)CCC[C@]1(C)CCC2=C(O1)C(C)=C(C)C(O)=C2C,InChIKey=GVJHHUAWPYXKBD-IEOSBIPESA-N,10.07,-4.2,30.94,NaN,NaN,0.082,NaN,NaN,NaN,NaN,NaN,NaN,NaN,NaN
12-Hydroxydodecanoic acid,HMDB02059,2.185,9,t,7.48,0.2065,-1,OCCCCCCCCCCCC(O)=O,InChIKey=ZDHCZVWCTKTBRY-UHFFFAOYSA-N,1.9,-3.1,NA,NA,NA,NA,NA,NA,NA,NA,NA,NA,NA,NA
Imipramine,HMDB01848,2.185,8,m,NA,0.0722,1,CN(C)CCCN1C2=CC=CC=C2CCC2=CC=CC=C12,InChIKey=BCGWQEUPMDMJNV-UHFFFAOYSA-N,2.98,9.73,NA,NA,NA,NA,NA,NA,NA,NA,NA,NA,NA,NA
Thymidine 3'.5'-cyclic monophosphate,HMDB01570,2.185,1,m,NA,0.0543,-1,CC1=CN([C@H]2CC3OP(O)(=O)OCC3O2)C(=O)NC1=O,InChIKey=QSJFDOVQWZVUQG-KAVNDROISA-N,4.82,-1.5,NA,NA,NA,NA,NA,NA,NA,NA,NA,NA,NA,NA
Chlorogenic acid,HMDB03164,2.185,1,m,NA,0.1344,-1,O[C@@H]1C[C@](O)(C[C@@H](OC(=O)\C=C\C2=CC(O)=C(O)C=C2)[C@@H]1O)C(O)=O,InChIKey=CWVRJTMFETXNAD-JUHZACGLSA-N,14.58,-3,NaN,NaN,NaN,NaN,NaN,NaN,NaN,NaN,NaN,NaN,NaN,NaN
Perillic acid,HMDB04586,2.185,2,m,NA,0.0598,-1,CC(=C)C1CCC(=CC1)C(O)=O,InChIKey=CDSMSBUVCWHORP-UHFFFAOYSA-N,1.89,-6.6,NaN,NaN,NaN,NaN,NaN,NaN,NaN,NaN,NaN,NaN,NaN,NaN
Pimelic acid,HMDB00857,2.185,4,t,7.55,1,-2,OC(=O)CCCCCC(O)=O,InChIKey=WLJVNTCWHIRURA-UHFFFAOYSA-N,1.74,7.47,NaN,NaN,NaN,NaN,NaN,NaN,NaN,NaN,NaN,NaN,NaN,NaN