Metabolite,HMDB Name,Shift (ppm),Hs,Type,J (Hz),Height,Physiological Charge,SMILES,InChlKey,pKa (Strongest Acidic),pKa (Strongest Basic),Blood,Urine,Feces,Saliva,Cerebrospinal Fluid (CSF),Amniotic Fluid,Aqueous Humour,Ascites Fluid,Breast Milk,Lymph,Sweat,Tears
Uridine diphosphate glucose,HMDB00286,3.785,3,m,NA,0.6629,-2,OC[C@@H]1OC(OP(O)(=O)OP(O)(=O)OC[C@@H]2O[C@@H]([C@@H](O)[C@H]2O)N2C=CC(=O)NC2=O)[C@@H](O)[C@H](O)[C@H]1O,InChIKey=HSCJRCZFDFQWRP-LPTOLDDLSA-N,18.3,0.7,NaN,NaN,NaN,NaN,NaN,NaN,NaN,NaN,NaN,NaN,NaN,NaN
Mannitol,HMDB00765,3.786,23,d,NA,0.8515,0,OC[C@@H](O)[C@@H](O)[C@H](O)[C@H](O)CO,InChIKey=FBPFZTCFMRRESA-KVTDHHQDSA-N,14.75,-0.16,34,10.26,NaN,NaN,4.875,NaN,NaN,NaN,NaN,NaN,NaN,NaN
Ornithine,HMDB00214,3.789,1,t,NA,0.553,1,NCCC[C@H](N)C(O)=O,InChIKey=AHLPHDHHMVZTML-BYPYZUCNSA-N,1.87,10,81.175,1.39588,NaN,NA,4.285,NaN,NaN,NaN,NaN,NaN,NaN,NaN
Glycerol,HMDB00131,3.79,18,tt,6.463 4.404,NA,0,OCC(O)CO,InChIKey=PEDCQBHIVMGVHV-UHFFFAOYSA-N,12.76,-9.7,174.5333333,NaN,NaN,167.46,23.33333333,NaN,NaN,NaN,NaN,NaN,NaN,NaN
Famotidine,HMDB01919,3.791,2,s,NA,1,1,NC(=N)NC1=NC(CSCCC(=N)NS(N)(=O)=O)=CS1,InChIKey=XUFQPHANEAPEMJ-UHFFFAOYSA-N,1.73,-5.5,NaN,NaN,NaN,NaN,NaN,NaN,NaN,NaN,NaN,NaN,NaN,NaN
5-Hydroxytryptophol,HMDB01855,3.795,2,t,7.35,0.3787,0,OCCC1=CNC2=CC=C(O)C=C12,InChIKey=KQROHCSYOGBQGJ-UHFFFAOYSA-N,1.44,-2.9,9.00E-04,NaN,NaN,NaN,0.004,NaN,NaN,NaN,NaN,NaN,NaN,NaN
Isovalerylcarnitine,HMDB00688,3.795,2,dq,NA,0.0278,0,CC(C)CC(=O)OC(CC([O-])=O)C[N+](C)(C)C,InChIKey=IGQBPDJNUXPEMT-UHFFFAOYSA-N,11.6,9.4,0.138,NaN,NaN,0.073,NaN,NaN,NaN,NaN,NaN,NaN,NaN,NaN
Taurocholic acid,HMDB00036,3.795,1,d,2.42,0.1463,-1,[H][C@@]12C[C@H](O)CCC1(C)C1C[C@H](O)C3(C)C(CCC3C1[C@H](O)C2)C(C)CCC(=O)NCCS(O)(=O)=O,InChIKey=WBWWGRHZICKQGZ-BKXUXKPJSA-N,19.03,-2.8,0.38,NaN,NaN,NaN,NaN,NaN,NaN,NaN,NaN,NaN,NaN,NaN
Guanidoacetic acid,HMDB00128,3.795,6,s,NA,1,0,NC(=N)NCC(O)=O,InChIKey=BPMFZUMJYQTVII-UHFFFAOYSA-N,3.44,-7,4.633333333,27.64,NaN,NaN,0.05,NaN,NaN,NaN,NaN,NaN,NaN,NaN
Anserine,HMDB00194,3.795,3,s,NA,1,0,CN1C=NC=C1C[C@H](NC(=O)CCN)C(O)=O,InChIKey=MYYIAHXIVFADCU-QMMMGPOBSA-N,0.9,-3.6,41,NA,NaN,NaN,NaN,NaN,NaN,NaN,NaN,NaN,NaN,NaN
Glutathione,HMDB00125,3.795,9,m,NA,0.5652,-1,N[C@@H](CCC(=O)N[C@@H](CS)C(=O)NCC(O)=O)C(O)=O,InChIKey=RWSXRVCMGQZWBV-WDSKDSINSA-N,1.87,-4.7,800.5,0.065,NaN,4.41,NaN,NaN,NaN,NaN,NaN,NaN,NaN,NaN
Allose,HMDB01151,3.795,1,m,NA,0.1964,0,[H][C@@]1(CO)OC(O)[C@@]([H])(O)[C@@]([H])(O)[C@@]1([H])O,InChIKey=WQZGKKKJIJFFOK-HOWGCPQDSA-N,10.47,-4.8,NA,NA,NA,NA,NA,NA,NA,NA,NA,NA,NA,NA
Deoxyadenosine monophosphate,HMDB00905,3.795,3,m,NA,0.3966,-2,NC1=NC=NC2=C1N=CN2[C@H]1C[C@H](O)[C@@H](COP(O)(O)=O)O1,InChIKey=KHWCHTKSEGGWEX-RRKCRQDMSA-N,0.54,10.77,NA,NA,NA,NA,NA,NA,NA,NA,NA,NA,NA,NA
Glyceric acid,HMDB00139,3.795,2,m,NA,1,-1,OC[C@@H](O)C(O)=O,InChIKey=RBNPOMFGQQGHHO-UWTATZPHSA-N,4.35,4.92,NA,3.1,NaN,8.2,NaN,NaN,NaN,NaN,NaN,NaN,NaN,NaN
4-(Methylnitrosamino)-1-(3-pyridyl)-1-butanone,HMDB11603,3.795,2,t,NA,0.3186,0,CN(CCCC(=O)C1=CC=CN=C1)N=O,InChIKey=FLAQQSHRLBFIEZ-UHFFFAOYSA-N,1.86,-3,NaN,NaN,NaN,NaN,NaN,NaN,NaN,NaN,NaN,NaN,NaN,NaN
Epitestosterone,HMDB00628,3.795,1,dd,5.81 3.45,0.0308,0,[H][C@@]12CC[C@@H](O)[C@@]1(C)CC[C@@]1([H])[C@@]2([H])CCC2=CC(=O)CC[C@]12C,InChIKey=MUMGGOZAMZWBJJ-KZYORJDKSA-N,3.89,4.89,NaN,NaN,NaN,NaN,NaN,NaN,NaN,NaN,NaN,NaN,NaN,NaN
Deoxyguanosine,HMDB00085,3.798,2,dd,22.75 4.12,0.3525,0,NC1=NC2=C(N=CN2[C@H]2C[C@H](O)[C@@H](CO)O2)C(=O)N1,InChIKey=YKBGVTZYEHREMT-KVQBGUIXSA-N,10.16,-0.04,NaN,1,NaN,NaN,NaN,NaN,NaN,NaN,NaN,NaN,NaN,NaN
5-Methoxytryptophol,HMDB01896,3.805,2,t,7.29,1,0,COC1=CC=C2NC=C(CCO)C2=C1,InChIKey=QLWKTGDEPLRFAT-UHFFFAOYSA-N,16.44,-0.18,0.00015,NaN,NaN,NaN,NaN,NaN,NaN,NaN,NaN,NaN,NaN,NaN
SM(d18:1/18:0),HMDB01348,3.805,1,m,NA,0.0127,0,CCCCCCCCCCCCCCCCCC(=O)N[C@@]([H])(COP(O)(=O)OCC[N+](C)(C)C)[C@]([H])(O)\C=C\CCCCCCCCCCCCC,InChIKey=LKQLRGMMMAHREN-YJFXYUILSA-O,1.86,-6.7,157.1,NaN,NaN,0.121,NaN,NaN,NaN,NaN,NaN,NaN,NaN,NaN
2.3-Dihydroxyvaleric acid,HMDB00421,3.805,1,m,NA,0.4025,-1,CCC(O)C(O)C(O)=O,InChIKey=CJXCLBPFKGZXJP-UHFFFAOYSA-N,3.28,-3,NA,NA,NA,NA,NA,NA,NA,NA,NA,NA,NA,NA
Coenzyme A,HMDB01423,3.805,1,dd,NA,0.0923,-4,CC(C)(COP(O)(=O)OP(O)(=O)OC[C@H]1O[C@H]([C@H](O)[C@@H]1OP(O)(O)=O)N1C=NC2=C1N=CN=C2N)C(O)C(=O)NCCC(=O)NCCS,InChIKey=RGJOEKWQDUBAIZ-DRCCLKDXSA-N,16.92,3.22,NA,NA,NA,NA,NA,NA,NA,NA,NA,NA,NA,NA
Stachyose,HMDB03553,3.805,15,m,NA,1,0,OC[C@H]1O[C@@](CO)(O[C@H]2O[C@H](CO[C@H]3O[C@H](CO[C@H]4O[C@H](CO)[C@H](O)[C@H](O)[C@H]4O)[C@H](O)[C@H](O)[C@H]3O)[C@@H](O)[C@H](O)[C@H]2O)[C@@H](O)[C@@H]1O,InChIKey=UQZIYBXSHAGNOE-XNSRJBNMSA-N,14.58,-3,NA,NA,NA,NA,NA,NA,NA,NA,NA,NA,NA,NA
Alpha-Lactose,HMDB00186,3.805,4,m,NA,0.4637,0,OC[C@H]1O[C@@H](O[C@H]2[C@H](O)[C@@H](O)[C@@H](O)O[C@@H]2CO)[C@H](O)[C@@H](O)[C@H]1O,InChIKey=GUBGYTABKSRVRQ-XLOQQCSPSA-N,1.87,10,NaN,1.45,NaN,NaN,NaN,NaN,NaN,NaN,NaN,NaN,NaN,NaN
Deoxyadenosine,HMDB00101,3.805,1,dd,12.60 4.30,0.3019,0,NC1=NC=NC2=C1N=CN2[C@H]1C[C@H](O)[C@@H](CO)O1,InChIKey=OLXZPDWKRNYJJZ-RRKCRQDMSA-N,1.86,-6.7,NaN,0.22,NaN,NaN,NaN,NaN,NaN,NaN,NaN,NaN,NaN,NaN
Deoxycytidine,HMDB00014,3.805,2,m,NA,0.5501,0,NC1=NC(=O)N(C=C1)[C@H]1C[C@H](O)[C@@H](CO)O1,InChIKey=CKTSBUTUHBMZGZ-SHYZEUOFSA-N,10.39,9.5,NaN,NaN,NaN,NaN,NaN,NaN,NaN,NaN,NaN,NaN,NaN,NaN
Deoxyinosine,HMDB00071,3.805,1,m,NA,0.1575,0,OC[C@H]1O[C@H](C[C@@H]1O)N1C=NC2=C1N=CN=C2O,InChIKey=VGONTNSXDCQUGY-RRKCRQDMSA-N,3.53,-4.9,NaN,NA,NaN,NaN,NaN,NaN,NaN,NaN,NaN,NaN,NaN,NaN
Erythrose,HMDB02649,3.805,1,dd,9.88 3.55,0.1449,0,O[C@@H]1COC(O)[C@@H]1O,InChIKey=FMAORJIQYMIRHF-HERZVMAMSA-N,1.93,-0.63,NaN,NaN,NaN,NaN,NaN,NaN,NaN,NaN,NaN,NaN,NaN,NaN
L-Fucose,HMDB00174,3.805,24,m,NA,0.242,0,C[C@@H]1OC(O)[C@@H](O)[C@H](O)[C@@H]1O,InChIKey=SHZGCJCMOBCMKK-DHVFOXMCSA-N,14.12,9.39,NaN,9.6,NaN,112.06,NaN,NaN,NaN,NaN,NaN,NaN,NaN,NaN
Rhamnose,HMDB00849,3.806,1,dd,9.73 3.42,0.1854,0,C[C@@H]1OC(O)[C@H](O)[C@H](O)[C@H]1O,InChIKey=SHZGCJCMOBCMKK-JFNONXLTSA-N,0.89,-1.5,NaN,NaN,NaN,NaN,NaN,NaN,NaN,NaN,NaN,NaN,NaN,NaN
D-Mannose,HMDB00169,3.814,8,m,NA,NA,0,OC[C@H]1OC(O)[C@@H](O)[C@@H](O)[C@@H]1O,InChIKey=WQZGKKKJIJFFOK-QTVWNMPRSA-N,3.66,9.48,39,1.25,NaN,NaN,44,NaN,NaN,NaN,NaN,NaN,NaN,NaN
Ribitol,HMDB00508,3.815,3,dd,NA,1,0,OC[C@H](O)[C@H](O)[C@H](O)CO,InChIKey=HEBKCHPVOIAQTA-ZXFHETKHSA-N,9.83,9.52,0.46,3.5,NaN,NaN,10.765,NaN,NaN,NaN,NaN,NaN,NaN,NaN
Symmetric dimethylarginine,HMDB03334,3.815,1,t,NA,0.0815,1,CN\C(NCCC[C@H](N)C(O)=O)=N/C,InChIKey=HVPFXCBJHIIJGS-LURJTMIESA-N,14.58,-3,0.502,12.4,NaN,0.35,NaN,NaN,NaN,NaN,NaN,NaN,NaN,NaN
3-Deoxyarabinohexonic acid,HMDB00346,3.815,1,ddd,9.93 5.69 2.92,0.2178,-1,OC[C@@H](O)[C@@H](O)C[C@H](O)C(O)=O,InChIKey=YGMNHEPVTNXLLS-VAYJURFESA-N,4.31,-7.3,NA,NA,NA,NA,NA,NA,NA,NA,NA,NA,NA,NA
Amlodipine,HMDB05018,3.815,2,td,NA,0.14,1,CCOC(=O)C1=C(COCCN)NC(C)=C(C1C1=CC=CC=C1Cl)C(=O)OC,InChIKey=HTIQEAQVCYTUBX-UHFFFAOYSA-N,1.87,10,NA,NA,NA,NA,NA,NA,NA,NA,NA,NA,NA,NA
Delta-Hexanolactone,HMDB00453,3.815,0,sxt,NA,0.0268,0,CC1CCCC(=O)O1,InChIKey=RZTOWFMDBDPERY-UHFFFAOYSA-N,1.86,5.14,NA,NA,NA,NA,NA,NA,NA,NA,NA,NA,NA,NA
Ethenodeoxyadenosine,HMDB01786,3.815,1,dd,NA,0.3267,0,OC[C@H]1O[C@H](C[C@@H]1O)N1C=NC2=C1N=CN1C=CN=C21,InChIKey=XQQIMTUYVDUWKJ-DJLDLDEBSA-N,7.67,4.94,NA,NA,NA,NA,NA,NA,NA,NA,NA,NA,NA,NA
Hydroxycobalamin,HMDB02308,3.815,0,m,NA,0.0033,2,[Co++].O.OC[C@H]1O[C@@]([H])([C@H](O)[C@]1([H])OP(=O)([O-])O[C@H](C)CNC(=O)CC[C@]1(C)[C@@H](CC(=O)N)[C@@]2([H])[N-]\C1=C(C)/C1=N/C(=C\C3=N\C(=C(C)/C4=N[C@]2(C)[C@@](C)(CC(=O)N)[C@@H]4CCC(=O)N)\[C@@](C)(CC(=O)N)[C@@H]3CCC(=O)N)/C(C)(C)[C@@H]1CCC(=O)N)N1C=NC2=C1C=C(C)C(C)=C2,InChIKey=DQOCFCZRZOAIBN-WZHZPDAFSA-L,2.45,-1.9,NA,NA,NA,NA,NA,NA,NA,NA,NA,NA,NA,NA
4-(Methylnitrosamino)-1-(3-pyridyl)-1-butanone,HMDB11603,3.815,3,s,NA,NA,0,CN(CCCC(=O)C1=CC=CN=C1)N=O,InChIKey=FLAQQSHRLBFIEZ-UHFFFAOYSA-N,1.86,-3,NaN,NaN,NaN,NaN,NaN,NaN,NaN,NaN,NaN,NaN,NaN,NaN
Glycogen,HMDB00757,3.815,10,m,NA,0.0123,0,OC[C@H]1O[C@H](OC[C@H]2O[C@H](O[C@H]3[C@H](O)[C@@H](O)[C@@H](O)O[C@@H]3CO)[C@H](O)[C@@H](O)[C@@H]2O[C@H]2O[C@H](CO)[C@@H](O)[C@H](O)[C@H]2O)[C@H](O)[C@@H](O)[C@@H]1O,InChIKey=BYSGBSNPRWKUQH-UJDJLXLFSA-N,2.54,-7.5,NaN,NaN,NaN,NaN,NaN,NaN,NaN,NaN,NaN,NaN,NaN,NaN
N-Acetylgalactosamine 4-sulphate,HMDB00781,3.815,4,m,NA,0.2003,-1,CC(=O)N[C@H]1[C@H](O)O[C@H](CO)[C@H](OS(O)(=O)=O)[C@@H]1O,InChIKey=WHCJUIFHMJFEFZ-UIAUGNHASA-N,4.09,9.31,NaN,NaN,NaN,NaN,NaN,NaN,NaN,NaN,NaN,NaN,NaN,NaN
Rutin,HMDB03249,3.815,1,dd,11.03 1.40,0.1079,-1,C[C@@H]1O[C@@H](OC[C@H]2O[C@@H](OC3=C(OC4=CC(O)=CC(O)=C4C3=O)C3=CC(O)=C(O)C=C3)[C@H](O)[C@@H](O)[C@@H]2O)[C@H](O)[C@H](O)[C@H]1O,InChIKey=IKGXIBQEEMLURG-NVPNHPEKSA-N,14.58,-3,NaN,NaN,NaN,NaN,NaN,NaN,NaN,NaN,NaN,NaN,NaN,NaN
Tiglylglycine,HMDB00959,3.815,2,d,5.86,0.6053,-1,C\C=C(/C)C(=O)NCC(O)=O,InChIKey=WRUSVQOKJIDBLP-HWKANZROSA-N,19.35,1.6,NaN,NaN,NaN,NaN,NaN,NaN,NaN,NaN,NaN,NaN,NaN,NaN
Uridine diphosphategalactose,HMDB00302,3.815,1,dt,NA,0.2553,-2,OC[C@H]1O[C@H](O[P@@](O)(=O)O[P@@](O)(=O)OC[C@H]2O[C@H]([C@H](O)[C@@H]2O)N2C=CC(=O)NC2=O)[C@H](O)[C@@H](O)[C@H]1O,InChIKey=HSCJRCZFDFQWRP-ABVWGUQPSA-N,4.48,-2.8,NaN,NaN,NaN,NaN,NaN,NaN,NaN,NaN,NaN,NaN,NaN,NaN
Uridine,HMDB00296,3.816,1,dd,12.77 4.49,0.2966,0,OC[C@H]1O[C@H]([C@H](O)[C@@H]1O)N1C=CC(=O)NC1=O,InChIKey=DRTQHJPVMGBUCF-XVFCMESISA-N,3.77,-0.35,3.11,0.602,NaN,NaN,NaN,NaN,NaN,NaN,NaN,NaN,NaN,NaN
Uridine diphosphate-N-acetylglucosamine,HMDB00290,3.817,1,m,NA,0.0979,-2,CC(=O)N[C@@H]1[C@@H](O)[C@H](O)[C@@H](CO)O[C@@H]1OP(O)(=O)OP(O)(=O)OC[C@H]1O[C@H]([C@H](O)[C@@H]1O)N1C=CC(=O)NC1=O,InChIKey=LFTYTUAZOPRMMI-CFRASDGPSA-N,4.67,-0.88,NaN,NaN,NaN,NaN,NaN,NaN,NaN,NaN,NaN,NaN,NaN,NaN
Ribothymidine,HMDB00884,3.823,1,dd,NA,0.1387,0,CC1=CN([C@@H]2O[C@H](CO)[C@@H](O)[C@H]2O)C(=O)NC1=O,InChIKey=DWRXFEITVBNRMK-JXOAFFINSA-N,0.83,9.06,NaN,NaN,NaN,NaN,NaN,NaN,NaN,NaN,NaN,NaN,NaN,NaN
5-Methoxytryptophol,HMDB01896,3.825,3,s,NA,1,0,COC1=CC=C2NC=C(CCO)C2=C1,InChIKey=QLWKTGDEPLRFAT-UHFFFAOYSA-N,16.44,-0.18,0.00015,NaN,NaN,NaN,NaN,NaN,NaN,NaN,NaN,NaN,NaN,NaN
Stearoylcarnitine,HMDB00848,3.825,2,m,NA,0.0113,0,CCCCCCCCCCCCCCCCCC(=O)OC(CC([O-])=O)C[N+](C)(C)C,InChIKey=FNPHNLNTJNMAEE-UHFFFAOYSA-N,0.83,5,0.06,NaN,NaN,NaN,NaN,NaN,NaN,NaN,NaN,NaN,NaN,NaN
Cytidine,HMDB00089,3.825,10,dd,12.79 4.51,0.3928,0,NC1=NC(=O)N(C=C1)[C@@H]1O[C@H](CO)[C@@H](O)[C@H]1O,InChIKey=UHDGCWIWMRVCDJ-XVFCMESISA-N,12.18,-5.4,0.175,0.393333333,NaN,0.132,NaN,NaN,NaN,NaN,NaN,NaN,NaN,NaN
D-Xylitol,HMDB02917,3.825,2,dt,6.90 4.33,0.5565,0,OC[C@H](O)C(O)[C@H](O)CO,InChIKey=HEBKCHPVOIAQTA-NGQZWQHPSA-N,18.74,-3.3,0.677,3.5,NaN,NaN,NaN,NaN,NaN,NaN,NaN,NaN,NaN,NaN
L(-)-Nicotine pestanal,HMDB01934,3.825,1,m,NA,0.0546,1,CN1CCC[C@H]1C1=CN=CC=C1,InChIKey=SNICXCGAKADSCV-JTQLQIEISA-N,1.87,10,0.745,NaN,NaN,NaN,NaN,NaN,NaN,NaN,NaN,NaN,NaN,NaN
Ethanolamine,HMDB00149,3.825,2,d,5.29,0.8481,1,NCCO,InChIKey=HZAXFHJVJLSVMW-UHFFFAOYSA-N,0.66,-2.2,1.6,21.77,NaN,135.99,11.265,NaN,NaN,NaN,NaN,NaN,NaN,NaN
Hydroxypropionic acid,HMDB00700,3.825,2,td,NA,0.9059,-1,OCCC(O)=O,InChIKey=ALRHLSYJTWAHJZ-UHFFFAOYSA-N,11.3,0.18,2.3,NaN,NaN,NaN,NaN,NaN,NaN,NaN,NaN,NaN,NaN,NaN
2-Amino-3-phosphonopropionic acid,HMDB00370,3.825,1,dd,12.96 7.18,0.4012,-1,NC(CP(O)(O)=O)C(O)=O,InChIKey=LBTABPSJONFLPO-UHFFFAOYSA-N,4.81,-0.58,NA,NA,NA,NA,NA,NA,NA,NA,NA,NA,NA,NA
Maltitol,HMDB02928,3.825,3,dd,17.14 12.24,0.6704,0,[H][C@@](O[C@H]1O[C@H](CO)[C@@H](O)[C@H](O)[C@H]1O)([C@H](O)CO)[C@H](O)[C@@H](O)CO,InChIKey=VQHSOMBJVWLPSR-WUJBLJFYSA-N,1.22,-0.88,NA,NA,NA,NA,NA,NA,NA,NA,NA,NA,NA,NA
N-Acetyllactosamine,HMDB01542,3.825,0,dd,NA,0.0354,0,CC(=O)N[C@H]1[C@H](O)O[C@H](CO)[C@@H](O[C@@H]2O[C@H](CO)[C@H](O)[C@H](O)[C@H]2O)[C@@H]1O,InChIKey=KFEUJDWYNGMDBV-LODBTCKLSA-N,4.82,-0.54,NA,NA,NA,NA,NA,NA,NA,NA,NA,NA,NA,NA
4-Methoxyphenylacetic acid,HMDB02072,3.825,4,s,NA,1,-1,COC1=CC=C(CC(O)=O)C=C1,InChIKey=NRPFNQUDKRYCNX-UHFFFAOYSA-N,13.04,6.91,NaN,NaN,NaN,NaN,NaN,NaN,NaN,NaN,NaN,NaN,NaN,NaN
Glycyl-glycine,HMDB11733,3.825,4,s,NA,0.509,0,NCC(=O)NCC(O)=O,InChIKey=YMAWOPBAYDPSLA-UHFFFAOYSA-N,1.86,-6.7,NaN,NaN,NaN,NaN,NaN,NaN,NaN,NaN,NaN,NaN,NaN,NaN
Glycyl-L-leucine,HMDB00759,3.825,2,d,2.63,1,0,CC(C)C[C@H](NC(=O)CN)C(O)=O,InChIKey=DKEXFJVMVGETOO-LURJTMIESA-N,-0.98,11.18,NaN,NaN,NaN,NaN,NaN,NaN,NaN,NaN,NaN,NaN,NaN,NaN
Vanillactic acid,HMDB00913,3.825,3,s,NA,1,-1,COC1=CC(CC(O)C(O)=O)=CC=C1O,InChIKey=SVYIZYRTOYHQRE-UHFFFAOYSA-N,4.95,4.97,NaN,NaN,NaN,NaN,NaN,NaN,NaN,NaN,NaN,NaN,NaN,NaN
Venlafaxine,HMDB05016,3.825,3,s,NA,0.4512,1,COC1=CC=C(C=C1)C(CN(C)C)C1(O)CCCCC1,InChIKey=PNVNVHUZROJLTJ-UHFFFAOYSA-N,1.87,10,NaN,NaN,NaN,NaN,NaN,NaN,NaN,NaN,NaN,NaN,NaN,NaN
Sorbitol,HMDB00247,3.828,1,d,2.93,0.3377,0,OC[C@H](O)[C@@H](O)[C@H](O)[C@H](O)CO,InChIKey=FBPFZTCFMRRESA-JGWLITMVSA-N,4.48,-0.54,7.045,3.5,NaN,NA,16.3,NaN,NaN,NaN,NaN,NaN,NaN,NaN
Diphenhydramine,HMDB01927,3.829,1,t,5.16,0.081,1,CN(C)CCOC(C1=CC=CC=C1)C1=CC=CC=C1,InChIKey=ZZVUWRFHKOJYTH-UHFFFAOYSA-N,1.87,10,NaN,NaN,NaN,NaN,NaN,NaN,NaN,NaN,NaN,NaN,NaN,NaN
Decanoylcarnitine,HMDB00651,3.835,1,dd,14.44 8.72,0.0344,0,CCCCCCCCCC(=O)OC(CC([O-])=O)C[N+](C)(C)C,InChIKey=LZOSYCMHQXPBFU-UHFFFAOYSA-N,5,-6.2,0.2005,NaN,NaN,NaN,NaN,NaN,NaN,NaN,NaN,NaN,NaN,NaN
Heparan sulfate,HMDB00693,3.835,8,s,NA,0.797,NA,NA,NA,-2,9.5,0.5,NaN,NaN,NaN,NaN,NaN,NaN,NaN,NaN,NaN,NaN,NaN
Guanosine,HMDB00133,3.835,1,d,4.08,0.1637,0,NC1=NC2=C(N=CN2[C@@H]2O[C@H](CO)[C@@H](O)[C@H]2O)C(=O)N1,InChIKey=NYHBQMYGNKIUIF-UUOKFMHZSA-N,2.48,-3.6,0.8,0.08,NaN,0.101,NaN,NaN,NaN,NaN,NaN,NaN,NaN,NaN
L-Arabinose,HMDB00646,3.835,1,dd,9.78 3.57,0.0874,0,O[C@H]1COC(O)[C@H](O)[C@H]1O,InChIKey=SRBFZHDQGSBBOR-HWQSCIPKSA-N,13.62,-3,2.5,8.75,NaN,NaN,14.15,NaN,NaN,NaN,NaN,NaN,NaN,NaN
Xanthosine,HMDB00299,3.835,12,m,NA,0.2258,0,OC[C@H]1O[C@H]([C@H](O)[C@@H]1O)N1C=NC2=C1N=C(O)N=C2O,InChIKey=UBORTCNDUKBEOP-UUOKFMHZSA-N,4.51,-0.61,5.08,NaN,NaN,NaN,NaN,NaN,NaN,NaN,NaN,NaN,NaN,NaN
L-Acetylcarnitine,HMDB00201,3.835,1,dd,NA,0.0316,0,CC(=O)OC(CC([O-])=O)C[N+](C)(C)C,InChIKey=RDHQFKQIGNGIED-UHFFFAOYSA-N,4.95,-2.2,5.48,NaN,NaN,0.973,NaN,NaN,NaN,NaN,NaN,NaN,NaN,NaN
Glycerol 3-phosphate,HMDB00126,3.835,5,m,NA,0.6982,-2,OC[C@@H](O)COP(O)(O)=O,InChIKey=AWUCVROLDVIAJX-GSVOUGTGSA-N,1.87,-2.9,30,NaN,NaN,NaN,NaN,NaN,NaN,NaN,NaN,NaN,NaN,NaN
D-Galactose,HMDB00143,3.835,1,m,NA,0.3251,0,OC[C@H]1O[C@H](O)[C@H](O)[C@@H](O)[C@H]1O,InChIKey=WQZGKKKJIJFFOK-PHYPRBDBSA-N,1.87,10,88.3,4.4,NaN,83.46,166,NaN,NaN,NaN,NaN,NaN,NaN,NaN
3-Methoxybenzenepropanoic acid,HMDB11751,3.835,27,s,NA,1,-1,COC1=CC(CCC(O)=O)=CC=C1,InChIKey=BJJQJLOZWBZEGA-UHFFFAOYSA-N,1.86,-6.7,NaN,NaN,NaN,NaN,NaN,NaN,NaN,NaN,NaN,NaN,NaN,NaN
5-Methylcytidine,HMDB00982,3.835,1,dd,12.82 4.29,0.1392,0,CC1=CN([C@@H]2O[C@H](CO)[C@@H](O)[C@H]2O)C(=O)N=C1N,InChIKey=ZAYHVCMSTBRABG-JXOAFFINSA-N,4.13,5.53,NaN,NaN,NaN,NaN,NaN,NaN,NaN,NaN,NaN,NaN,NaN,NaN
Alpha-D-Glucose,HMDB03345,3.835,2,m,NA,0.3898,0,OC[C@H]1O[C@H](O)[C@H](O)[C@@H](O)[C@@H]1O,InChIKey=WQZGKKKJIJFFOK-DVKNGEFBSA-N,14.58,-3,NaN,NaN,NaN,NaN,NaN,NaN,NaN,NaN,NaN,NaN,NaN,NaN
Galacturonic acid,HMDB02545,3.835,7,dd,10.32 3.88,0.3212,-1,O[C@@H](C=O)[C@@H](O)[C@@H](O)[C@H](O)C(O)=O,InChIKey=IAJILQKETJEXLJ-RSJOWCBRSA-N,14.58,-3,NaN,NaN,NaN,NaN,NaN,NaN,NaN,NaN,NaN,NaN,NaN,NaN
Gluconolactone,HMDB00150,3.835,1,dd,10.56,0.3977,0,OC[C@H]1OC(=O)[C@H](O)[C@@H](O)[C@@H]1O,InChIKey=PHOQVHQSTUBQQK-SQOUGZDYSA-N,4.22,-0.38,NaN,NaN,NaN,NaN,NaN,NaN,NaN,NaN,NaN,NaN,NaN,NaN
Gluconolactone,HMDB00150,3.835,1,dd,2.43,0.3977,0,OC[C@H]1OC(=O)[C@H](O)[C@@H](O)[C@@H]1O,InChIKey=PHOQVHQSTUBQQK-SQOUGZDYSA-N,4.22,-0.38,NaN,NaN,NaN,NaN,NaN,NaN,NaN,NaN,NaN,NaN,NaN,NaN
Melibiose,HMDB00048,3.835,8,dd,NA,0.3475,0,OC[C@H]1O[C@H](OC[C@H]2OC(O)[C@H](O)[C@@H](O)[C@@H]2O)[C@H](O)[C@@H](O)[C@H]1O,InChIKey=DLRVVLDZNNYCBX-ABXHMFFYSA-N,2.06,-0.1,NaN,NaN,NaN,NaN,NaN,NaN,NaN,NaN,NaN,NaN,NaN,NaN
Naproxen,HMDB01923,3.835,1,q,NA,0.0403,-1,COC1=CC2=C(C=C1)C=C(C=C2)[C@H](C)C(O)=O,InChIKey=CMWTZPSULFXXJA-VIFPVBQESA-N,0.87,-0.34,NaN,NaN,NaN,NaN,NaN,NaN,NaN,NaN,NaN,NaN,NaN,NaN
Raffinose,HMDB03213,3.835,1,m,NA,0.4046,0,OC[C@H]1O[C@@](CO)(OC2O[C@H](COC3O[C@H](CO)[C@H](O)[C@H](O)[C@H]3O)[C@@H](O)[C@H](O)[C@H]2O)[C@@H](O)[C@@H]1O,InChIKey=MUPFEKGTMRGPLJ-BQCSWRFHSA-N,14.58,-3,NaN,NaN,NaN,NaN,NaN,NaN,NaN,NaN,NaN,NaN,NaN,NaN
Selenomethionine,HMDB03966,3.835,1,dd,6.90 5.47,0.0769,0,C[Se]CCC(N)C(O)=O,InChIKey=RJFAYQIBOAGBLC-UHFFFAOYSA-N,1.86,-6.7,NaN,NaN,NaN,NaN,NaN,NaN,NaN,NaN,NaN,NaN,NaN,NaN
Sucrose,HMDB00258,3.835,4,m,NA,0.9351,0,OC[C@H]1O[C@@](CO)(O[C@H]2O[C@H](CO)[C@@H](O)[C@H](O)[C@H]2O)[C@@H](O)[C@@H]1O,InChIKey=CZMRCDWAGMRECN-UGDNZRGBSA-N,8.75,9.83,NaN,5.86275,NaN,NaN,NaN,NaN,NaN,NaN,NaN,NaN,NaN,NaN
Trehalose,HMDB00975,3.835,42,m,NA,1,0,OC[C@H]1O[C@H](O[C@H]2O[C@H](CO)[C@@H](O)[C@H](O)[C@H]2O)[C@H](O)[C@@H](O)[C@@H]1O,InChIKey=HDTRYLNUVZCQOY-LIZSDCNHSA-N,4.35,5,NaN,NaN,NaN,NaN,NaN,NaN,NaN,NaN,NaN,NaN,NaN,NaN
Gluconic acid,HMDB00625,3.836,1,m,NA,0.4332,-1,OC[C@@H](O)[C@@H](O)[C@H](O)[C@@H](O)C(O)=O,InChIKey=RGHNJXZEOKUKBD-SQOUGZDYSA-N,14.58,-3,NA,NaN,NaN,45.49,NaN,NaN,NaN,NaN,NaN,NaN,NaN,NaN
D-Fructose,HMDB00660,3.838,15,m,NA,NA,0,OC[C@H]1O[C@](O)(CO)[C@@H](O)[C@@H]1O,InChIKey=RFSUNEUAIZKAJO-ARQDHWQXSA-N,3.61,-7,31,NaN,NaN,NaN,200,NaN,NaN,NaN,NaN,NaN,NaN,NaN
D-Glucose,HMDB00122,3.839,10,m,NA,NA,0,OC[C@H]1OC(O)[C@H](O)[C@@H](O)[C@@H]1O,InChIKey=WQZGKKKJIJFFOK-GASJEMHNSA-N,1.89,-6.6,4935.2875,17.15333333,NaN,NA,2340,NaN,NaN,NaN,NaN,NaN,NaN,NaN
Thymidine,HMDB00273,3.842,1,m,NA,0.1512,0,CC1=CN([C@H]2C[C@H](O)[C@@H](CO)O2)C(=O)NC1=O,InChIKey=IQFYYKKMVGJFEH-XLPZGREQSA-N,18.3,-5.5,0.205,6.87,NaN,NaN,NaN,NaN,NaN,NaN,NaN,NaN,NaN,NaN
Estriol,HMDB00153,3.845,1,m,NA,0.068,0,[H][C@@]12C[C@@H](O)[C@H](O)[C@@]1(C)CC[C@]1([H])C3=C(CC[C@@]21[H])C=C(O)C=C3,InChIKey=PROQIPRRNZUXQM-ZXXIGWHRSA-N,2.84,5.54,0.006,NaN,NaN,NaN,NaN,0.0023,NaN,NaN,NaN,NaN,NaN,NaN
L-Palmitoylcarnitine,HMDB00222,3.845,2,m,NA,0.0299,0,CCCCCCCCCCCCCCCC(=O)O[C@H](CC([O-])=O)C[N+](C)(C)C,InChIKey=XOMRRQXKHMYMOC-OAQYLSRUSA-N,1.62,-0.58,0.113,0.5,NaN,0.034,NaN,NaN,NaN,NaN,NaN,NaN,NaN,NaN
Ribitol,HMDB00508,3.845,2,ddd,NA,1,0,OC[C@H](O)[C@H](O)[C@H](O)CO,InChIKey=HEBKCHPVOIAQTA-ZXFHETKHSA-N,9.83,9.52,0.46,3.5,NaN,NaN,10.765,NaN,NaN,NaN,NaN,NaN,NaN,NaN
L-Arabitol,HMDB01851,3.845,2,dd,11.76 2.65,0.2998,0,OC[C@H](O)C(O)[C@@H](O)CO,InChIKey=HEBKCHPVOIAQTA-IMJSIDKUSA-N,-2,-1.6,2,19.28,NaN,NaN,28.9,NaN,NaN,NaN,NaN,NaN,NaN,NaN
Cholesterol sulfate,HMDB00653,3.845,1,m,NA,0.082,-1,[H][C@@]12CC[C@H]([C@H](C)CCCC(C)C)[C@@]1(C)CC[C@@]1([H])[C@@]2([H])CC=C2C[C@H](CC[C@]12C)OS(O)(=O)=O,InChIKey=BHYOQNUELFTYRT-DPAQBDIFSA-N,1.22,-1.3,5.4,NaN,NaN,NaN,NaN,NaN,NaN,NaN,NaN,NaN,NaN,NaN
Cellobiose,HMDB00055,3.845,3,m,NA,0.1679,0,OC[C@H]1O[C@@H](O[C@H]2[C@H](O)[C@@H](O)[C@H](O)O[C@@H]2CO)[C@H](O)[C@@H](O)[C@@H]1O,InChIKey=GUBGYTABKSRVRQ-QRZGKKJRSA-N,11.7,1.83,NA,NA,NA,NA,NA,NA,NA,NA,NA,NA,NA,NA
4-Methoxycinnamic acid,HMDB02040,3.845,3,s,NA,0.89,-1,COC1=CC=C(\C=C\C(O)=O)C=C1,InChIKey=AFDXODALSZRGIH-QPJJXVBHSA-N,12.45,-3.1,NaN,NaN,NaN,NaN,NaN,NaN,NaN,NaN,NaN,NaN,NaN,NaN
Dehydroascorbic acid,HMDB01264,3.845,1,m,NA,0.3287,-1,[H][C@@]1(OC(=O)C(=O)C1=O)[C@H](O)CO,InChIKey=SBJKKFFYIZUCET-DUZGATOHSA-N,11.63,9.37,NaN,NaN,NaN,NaN,NaN,NaN,NaN,NaN,NaN,NaN,NaN,NaN
Glycyl-glycine,HMDB11733,3.845,4,s,NA,1,0,NCC(=O)NCC(O)=O,InChIKey=YMAWOPBAYDPSLA-UHFFFAOYSA-N,1.86,-6.7,NaN,NaN,NaN,NaN,NaN,NaN,NaN,NaN,NaN,NaN,NaN,NaN
Hydroxyphenylacetylglycine,HMDB00735,3.845,1,d,5.86,0.5716,-1,OC(=O)CNC(=O)CC1=CC=C(O)C=C1,InChIKey=CPPDWYIPKSSNNM-UHFFFAOYSA-N,3.98,4.99,NaN,NaN,NaN,NaN,NaN,NaN,NaN,NaN,NaN,NaN,NaN,NaN
L-Allothreonine,HMDB04041,3.845,1,d,3.91,0.3237,0,C[C@H](O)[C@H](N)C(O)=O,InChIKey=AYFVYJQAPQTCCC-HRFVKAFMSA-N,1.86,-6.7,NaN,NaN,NaN,NaN,NaN,NaN,NaN,NaN,NaN,NaN,NaN,NaN
L-Homocystine,HMDB00676,3.845,2,t,NA,0.0243,0,NC(CCSSCC[C@H](N)C(O)=O)C(O)=O,InChIKey=ZTVZLYBCZNMWCF-ZBHICJROSA-N,3.3,-1.4,NaN,0,NaN,NaN,NaN,NaN,NaN,NaN,NaN,NaN,NaN,NaN
Maltotetraose,HMDB01296,3.845,15,m,NA,0.9493,0,OC[C@H]1O[C@H](O[C@H]2[C@H](O)[C@@H](O)[C@@H](O[C@H]3[C@H](O)[C@@H](O)[C@@H](O[C@H]4[C@H](O)[C@@H](O)C(O)O[C@@H]4CO)O[C@@H]3CO)O[C@@H]2CO)[C@H](O)[C@@H](O)[C@@H]1O,InChIKey=LUEWUZLMQUOBSB-AYQJAVFRSA-N,3.23,5.58,NaN,NaN,NaN,NaN,NaN,NaN,NaN,NaN,NaN,NaN,NaN,NaN
N-Acetylmannosamine,HMDB01129,3.845,6,m,NA,0.3128,0,[H][C@@]1(O)O[C@H](CO)[C@@H](O)[C@H](O)[C@@H]1NC(C)=O,InChIKey=OVRNDRQMDRJTHS-OZRXBMAMSA-N,2.86,2.89,NaN,NaN,NaN,NaN,NaN,NaN,NaN,NaN,NaN,NaN,NaN,NaN