Metabolite,HMDB Name,Shift (ppm),Hs,Type,J (Hz),Height,Physiological Charge,SMILES,InChlKey,pKa (Strongest Acidic),pKa (Strongest Basic),Blood,Urine,Feces,Saliva,Cerebrospinal Fluid (CSF),Amniotic Fluid,Aqueous Humour,Ascites Fluid,Breast Milk,Lymph,Sweat,Tears
Sarcosine,HMDB00271,2.745,3,s,NA,1,0,CNCC(O)=O,InChIKey=FSYKKLYZXJSNPZ-UHFFFAOYSA-N,4.48,-0.54,NaN,0.47,NaN,NA,NaN,NaN,NaN,NaN,NaN,NaN,NaN,NaN
Succinic acid semialdehyde,HMDB01259,2.745,2,td,6.78 1.18,0.5765,-1,OC(=O)CCC=O,InChIKey=UIUJIQZEACWQSV-UHFFFAOYSA-N,3.53,8.14,NaN,NaN,NaN,NaN,NaN,NaN,NaN,NaN,NaN,NaN,NaN,NaN
Sulforaphane,HMDB05792,2.745,2,m,NA,0.0623,0,CS(=O)CCCCN=C=S,InChIKey=SUVMJBTUFCVSAD-UHFFFAOYSA-N,1.87,10,NaN,NaN,NaN,NaN,NaN,NaN,NaN,NaN,NaN,NaN,NaN,NaN
Hesperidin,HMDB03265,2.755,1,ddd,NA,0.0278,0,COC1=CC=C(C=C1O)[C@@H]1CC(=O)C2=C(O1)C=C(OC1O[C@H](CO[C@H]3O[C@@H](C)[C@@H](O)[C@@H](O)[C@H]3O)[C@H](O)[C@H](O)[C@H]1O)C=C2O,InChIKey=QUQPHWDTPGMPEX-UNZJSITISA-N,14.58,-3,NA,NA,NA,NA,NA,NA,NA,NA,NA,NA,NA,NA
Methionine sulfoxide,HMDB02005,2.755,1,s,NA,1,0,CS(=O)CCC(N)C(O)=O,InChIKey=QEFRNWWLZKMPFJ-UHFFFAOYSA-N,0.83,9.31,NaN,NA,NaN,3.28,NaN,NaN,NaN,NaN,NaN,NaN,NaN,NaN
Isovalerylcarnitine,HMDB00688,2.765,2,m,NA,0.0666,0,CC(C)CC(=O)OC(CC([O-])=O)C[N+](C)(C)C,InChIKey=IGQBPDJNUXPEMT-UHFFFAOYSA-N,11.6,9.4,0.138,NaN,NaN,0.073,NaN,NaN,NaN,NaN,NaN,NaN,NaN,NaN
17a-Estradiol,HMDB00429,2.765,2,m,NA,0.0754,0,[H][C@@]12CC[C@@H](O)[C@@]1(C)CC[C@]1([H])C3=C(CC[C@@]21[H])C=C(O)C=C3,InChIKey=VOXZDWNPVJITMN-SFFUCWETSA-N,1.22,-6.1,NaN,2.3,NaN,NaN,NaN,NaN,NaN,NaN,NaN,NaN,NaN,NaN
Citramalic acid,HMDB00426,2.765,1,d,15.66,0.2247,-2,CC(O)(CC(O)=O)C(O)=O,InChIKey=XFTRTWQBIOMVPK-UHFFFAOYSA-N,11.6,9.8,NaN,NaN,NaN,NaN,NaN,NaN,NaN,NaN,NaN,NaN,NaN,NaN
Naringin,HMDB02927,2.765,1,m,NA,0.017,0,C[C@@H]1O[C@@H](O[C@@H]2[C@@H](O)[C@H](O)[C@@H](CO)O[C@H]2OC2=CC(O)=C3C(=O)C[C@H](OC3=C2)C2=CC=C(O)C=C2)[C@H](O)[C@H](O)[C@H]1O,InChIKey=DFPMSGMNTNDNHN-ZPHOTFPESA-N,3.04,-3.3,NaN,NaN,NaN,NaN,NaN,NaN,NaN,NaN,NaN,NaN,NaN,NaN
Shikimic acid,HMDB03070,2.765,17,dd,17.98 5.31,0.5168,-1,O[C@@H]1CC(=C[C@@H](O)[C@H]1O)C(O)=O,InChIKey=JXOHGGNKMLTUBP-HSUXUTPPSA-N,1.86,-0.032,NaN,NaN,NaN,NaN,NaN,NaN,NaN,NaN,NaN,NaN,NaN,NaN
Epinephrine,HMDB00068,2.775,3,s,NA,1,1,CNC[C@H](O)C1=CC=C(O)C(O)=C1,InChIKey=UCTWMZQNUQWSLP-VIFPVBQESA-N,3.91,-3.6,0.00164,0.004333333,NaN,NaN,0.00012,NaN,NaN,NaN,NaN,NaN,NaN,NaN
3.5-Diiodo-L-tyrosine,HMDB03474,2.775,1,dd,14.31 7.65,0.1003,0,N[C@@H](CC1=CC(I)=C(O)C(I)=C1)C(O)=O,InChIKey=NYPYHUZRZVSYKL-ZETCQYMHSA-N,14.58,-3,0.0036,4.90E-05,NaN,NaN,NaN,NaN,NaN,NaN,NaN,NaN,NaN,NaN
L(-)-Nicotine pestanal,HMDB01934,2.775,3,s,NA,1,1,CN1CCC[C@H]1C1=CN=CC=C1,InChIKey=SNICXCGAKADSCV-JTQLQIEISA-N,1.87,10,0.745,NaN,NaN,NaN,NaN,NaN,NaN,NaN,NaN,NaN,NaN,NaN
2-Ketobutyric acid,HMDB00005,2.775,2,q,7.31,0.6006,-1,CCC(=O)C(O)=O,InChIKey=TYEYBOSBBBHJIV-UHFFFAOYSA-N,1.89,-6.6,6.365,NaN,NaN,NaN,NaN,NaN,NaN,NaN,NaN,NaN,NaN,NaN
(+)-(S)-Carvone,HMDB04487,2.775,1,m,NA,0.0274,0,CC(=C)[C@H]1CC=C(C)C(=O)C1,InChIKey=ULDHMXUKGWMISQ-VIFPVBQESA-N,1.86,-6.7,NaN,NaN,NaN,NaN,NaN,NaN,NaN,NaN,NaN,NaN,NaN,NaN
Loperamide,HMDB04999,2.775,7,m,NA,0.1839,1,CN(C)C(=O)C(CCN1CCC(O)(CC1)C1=CC=C(Cl)C=C1)(C1=CC=CC=C1)C1=CC=CC=C1,InChIKey=RDOIQAHITMMDAJ-UHFFFAOYSA-N,1.87,10,NaN,NaN,NaN,NaN,NaN,NaN,NaN,NaN,NaN,NaN,NaN,NaN
Levulinic acid,HMDB00720,2.781,2,t,6.78,0.2904,-1,CC(=O)CCC(O)=O,InChIKey=JOOXCMJARBKPKM-UHFFFAOYSA-N,-0.99,-0.12,NaN,NaN,NaN,NaN,NaN,NaN,NaN,NaN,NaN,NaN,NaN,NaN
Epicatechin,HMDB01871,2.785,1,m,NA,0.2314,0,O[C@@H]1CC2=C(O)C=C(O)C=C2O[C@@H]1C1=CC(O)=C(O)C=C1,InChIKey=PFTAWBLQPZVEMU-UKRRQHHQSA-N,1.73,4.95,0.625,0.13,NaN,NaN,NaN,NaN,NaN,NaN,NaN,NaN,NaN,NaN
Phenylephrine,HMDB02182,2.785,3,s,NA,1,1,CNC[C@H](O)C1=CC(O)=CC=C1,InChIKey=SONNWYBIRXJNDC-VIFPVBQESA-N,4.82,9.25,NaN,NaN,NaN,NaN,NaN,NaN,NaN,NaN,NaN,NaN,NaN,NaN
Deoxyguanosine,HMDB00085,2.786,1,ddd,13.97 6.92 6.78,0.2304,0,NC1=NC2=C(N=CN2[C@H]2C[C@H](O)[C@@H](CO)O2)C(=O)N1,InChIKey=YKBGVTZYEHREMT-KVQBGUIXSA-N,10.16,-0.04,NaN,1,NaN,NaN,NaN,NaN,NaN,NaN,NaN,NaN,NaN,NaN
Dihydrothymine,HMDB00079,2.79,1,m,10.34 7.04 6.70,0.0608,0,CC1CNC(=O)NC1=O,InChIKey=NBAKTGXDIBVZOO-UHFFFAOYSA-N,1.51,-3.7,NaN,2.7,NaN,NaN,NaN,NaN,NaN,NaN,NaN,NaN,NaN,NaN
Anabasine,HMDB04350,2.795,1,m,NA,0.0452,1,C1CCC(NC1)C1=CN=CC=C1,InChIKey=MTXSIJUGVMTTMU-UHFFFAOYSA-N,1.86,-4.8,0.0031,4.4,NaN,NaN,NaN,NaN,NaN,NaN,NaN,NaN,NaN,NaN
4.5-Dihydroorotic acid,HMDB00528,2.795,1,dd,17.07 6.50,0.3803,-1,OC(=O)C1CC(=O)NC(=O)N1,InChIKey=UFIVEPVSAGBUSI-UHFFFAOYSA-N,1.86,-6.7,NA,NA,NA,NA,NA,NA,NA,NA,NA,NA,NA,NA
Biocytin,HMDB03134,2.795,4,d,13.04,0.6301,0,[H][C@]12CS[C@@H](CCCCC(=O)NCCCC[C@H](N)C(O)=O)[C@@]1([H])NC(=O)N2,InChIKey=BAQMYDQNMFBZNA-MNXVOIDGSA-N,14.58,-3,NA,NA,NA,NA,NA,NA,NA,NA,NA,NA,NA,NA
dGTP,HMDB01440,2.795,1,m,NA,0.2001,-3,NC1=NC2=C(N=CN2[C@H]2C[C@H](O)[C@@H](COP(O)(=O)OP(O)(=O)OP(O)(O)=O)O2)C(=O)N1,InChIKey=HAAZLUGHYHWQIW-KVQBGUIXSA-N,2.23,-0.28,NA,NA,NA,NA,NA,NA,NA,NA,NA,NA,NA,NA
5-Aminolevulinic acid,HMDB01149,2.796,2,t,6.59,0.2087,0,NCC(=O)CCC(O)=O,InChIKey=ZGXJTSGNIOSYLO-UHFFFAOYSA-N,9.91,-4.1,NaN,1.71,NaN,NaN,NaN,NaN,NaN,NaN,NaN,NaN,NaN,NaN
Linoleic acid,HMDB00673,2.797,2,t,6.34,0.3698,-1,CCCCC\C=C/C\C=C/CCCCCCCC(O)=O,InChIKey=OYHQOLUKZRVURQ-HZJYTTRNSA-N,9.99,9.23,48.2866,0.05,NaN,NaN,NaN,NaN,NaN,NaN,NaN,NaN,NaN,NaN
Citalopram,HMDB05038,2.805,6,s,NA,0.2575,1,CN(C)CCCC1(OCC2=C1C=CC(=C2)C#N)C1=CC=C(F)C=C1,InChIKey=WSEQXVZVJXJVFP-UHFFFAOYSA-N,1.87,10,NA,NA,NA,NA,NA,NA,NA,NA,NA,NA,NA,NA
L-Dihydroorotic acid,HMDB03349,2.805,1,dd,17.06 6.27,0.3618,-1,OC(=O)[C@@H]1CC(=O)NC(=O)N1,InChIKey=UFIVEPVSAGBUSI-REOHCLBHSA-N,14.58,-3,NA,NA,NA,NA,NA,NA,NA,NA,NA,NA,NA,NA
3-Indolebutyric acid,HMDB02096,2.805,2,t,7.46,0.7181,-1,OC(=O)CCCC1=CNC2=CC=CC=C12,InChIKey=JTEDVYBZBROSJT-UHFFFAOYSA-N,3.62,-3.6,NaN,NaN,NaN,NaN,NaN,NaN,NaN,NaN,NaN,NaN,NaN,NaN
L-Thyronine,HMDB00667,2.815,1,m,NA,0.0512,0,N[C@@H](CC1=CC=C(OC2=CC=C(O)C=C2)C=C1)C(O)=O,InChIKey=KKCIOUWDFWQUBT-AWEZNQCLSA-N,3.41,9.57,0.29,0.0024,NaN,NaN,NaN,NaN,NaN,NaN,NaN,NaN,NaN,NaN
Alpha-Linolenic acid,HMDB01388,2.815,4,m,NA,0.0773,-1,CC\C=C/C\C=C/C\C=C/CCCCCCCC(O)=O,InChIKey=DTOSIQBPPRVQHS-PDBXOOCHSA-N,11.32,1.82,7.383333333,NaN,NaN,NaN,NaN,NaN,NaN,NaN,NaN,NaN,NaN,NaN
L-Aspartic acid,HMDB00191,2.815,2,dd,17.45,0.9547,-1,N[C@@H](CC(O)=O)C(O)=O,InChIKey=CKLJMWTZIZZHCS-REOHCLBHSA-N,1.09,0.078,20.9,3.446,NaN,NA,1.33,NaN,NaN,NaN,NaN,NaN,NaN,NaN
L-Aspartic acid,HMDB00191,2.815,2,dd,3.72,0.9547,-1,N[C@@H](CC(O)=O)C(O)=O,InChIKey=CKLJMWTZIZZHCS-REOHCLBHSA-N,1.09,0.078,20.9,3.446,NaN,NA,1.33,NaN,NaN,NaN,NaN,NaN,NaN,NaN
CE(18:2(9Z.12Z)),HMDB00610,2.815,2,m,NA,0.1085,0,CCCCC\C=C/C\C=C/CCCCCCCC(=O)O[C@H]1CC[C@@]2(C)C(=CC[C@@]3([H])[C@]4([H])CC[C@]([H])([C@H](C)CCCC(C)C)[C@@]4(C)CC[C@]23[H])C1,InChIKey=NAACPBBQTFFYQB-LJAITQKLSA-N,1.87,10,NaN,NaN,NaN,NaN,NaN,NaN,NaN,NaN,NaN,NaN,NaN,NaN
Metoprolol,HMDB01932,2.815,2,t,7.01,0.1548,1,COCCC1=CC=C(OCC(O)CNC(C)C)C=C1,InChIKey=IUBSYMUCCVWXPE-UHFFFAOYSA-N,0.83,7.85,NaN,NaN,NaN,NaN,NaN,NaN,NaN,NaN,NaN,NaN,NaN,NaN
S-Adenosylhomocysteine,HMDB00939,2.815,1,dd,13.73 6.90,0.1972,0,N[C@@H](CCSC[C@H]1O[C@H]([C@H](O)[C@@H]1O)N1C=NC2=C(N)N=CN=C12)C(O)=O,InChIKey=ZJUKTBDSGOFHSH-WFMPWKQPSA-N,9.43,1.41,NaN,NaN,NaN,NaN,0.01,NaN,NaN,NaN,NaN,NaN,NaN,NaN
Verapamil,HMDB01850,2.815,3,s,NA,0.7636,1,COC1=C(OC)C=C(CCN(C)CCCC(C#N)(C(C)C)C2=CC(OC)=C(OC)C=C2)C=C1,InChIKey=SGTNSNPWRIOYBX-UHFFFAOYSA-N,12.45,-0.16,NaN,NaN,NaN,NaN,NaN,NaN,NaN,NaN,NaN,NaN,NaN,NaN
Guanidinosuccinic acid,HMDB03157,2.825,1,dd,16.18 3.41,1,-1,NC(=N)N[C@@H](CC(O)=O)C(O)=O,InChIKey=VVHOUVWJCQOYGG-REOHCLBHSA-N,14.58,-3,0.3518,2.74,NaN,NaN,NA,NaN,NaN,NaN,NaN,NaN,NaN,NaN
Symmetric dimethylarginine,HMDB03334,2.825,3,s,NA,1,1,CN\C(NCCC[C@H](N)C(O)=O)=N/C,InChIKey=HVPFXCBJHIIJGS-LURJTMIESA-N,14.58,-3,0.502,12.4,NaN,0.35,NaN,NaN,NaN,NaN,NaN,NaN,NaN,NaN
Hydroxycobalamin,HMDB02308,2.825,1,dd,14.03 9.57,0.0046,2,[Co++].O.OC[C@H]1O[C@@]([H])([C@H](O)[C@]1([H])OP(=O)([O-])O[C@H](C)CNC(=O)CC[C@]1(C)[C@@H](CC(=O)N)[C@@]2([H])[N-]\C1=C(C)/C1=N/C(=C\C3=N\C(=C(C)/C4=N[C@]2(C)[C@@](C)(CC(=O)N)[C@@H]4CCC(=O)N)\[C@@](C)(CC(=O)N)[C@@H]3CCC(=O)N)/C(C)(C)[C@@H]1CCC(=O)N)N1C=NC2=C1C=C(C)C(C)=C2,InChIKey=DQOCFCZRZOAIBN-WZHZPDAFSA-L,2.45,-1.9,NA,NA,NA,NA,NA,NA,NA,NA,NA,NA,NA,NA
8.11.14-Eicosatrienoic acid,HMDB02925,2.825,4,t,6.16,0.1734,-1,CCCCC\C=C/C\C=C/C\C=C/CCCCCCC(O)=O,InChIKey=HOBAELRKJCKHQD-QNEBEIHSSA-N,1.86,-3,NaN,NaN,NaN,NaN,NaN,NaN,NaN,NaN,NaN,NaN,NaN,NaN
Argininosuccinic acid,HMDB00052,2.825,1,dd,16.12 3.41,0.4543,-1,N[C@@H](CCCNC(=N)N[C@@H](CC(O)=O)C(O)=O)C(O)=O,InChIKey=KDZOASGQNOPSCU-WDSKDSINSA-N,0.83,-9.9,NaN,0.0032,NaN,NaN,NaN,NaN,NaN,NaN,NaN,NaN,NaN,NaN
Ergocalciferol,HMDB00900,2.825,1,m,NA,0.004,0,CC(C)[C@@H](C)\C=C\[C@@H](C)[C@H]1CC[C@@]2([H])\C(CCC[C@]12C)=C\C=C1\C[C@@H](O)CCC1=C,InChIKey=MECHNRXZTMCUDQ-RKHKHRCZSA-N,3.25,-6.3,NaN,NaN,NaN,0.008,NaN,NaN,NaN,NaN,NaN,NaN,NaN,NaN
L-Homocystine,HMDB00676,2.825,4,m,NA,0.0284,0,NC(CCSSCC[C@H](N)C(O)=O)C(O)=O,InChIKey=ZTVZLYBCZNMWCF-ZBHICJROSA-N,3.3,-1.4,NaN,0,NaN,NaN,NaN,NaN,NaN,NaN,NaN,NaN,NaN,NaN
Famotidine,HMDB01919,2.828,2,t,7,0.58,1,NC(=N)NC1=NC(CSCCC(=N)NS(N)(=O)=O)=CS1,InChIKey=XUFQPHANEAPEMJ-UHFFFAOYSA-N,1.73,-5.5,NaN,NaN,NaN,NaN,NaN,NaN,NaN,NaN,NaN,NaN,NaN,NaN
Biotin,HMDB00030,2.835,1,dd,12.41 5.09,0.2528,-1,[H][C@]12CS[C@@H](CCCCC(O)=O)[C@@]1([H])NC(=O)N2,InChIKey=YBJHBAHKTGYVGT-ZKWXMUAHSA-N,4.36,-3,0.00127,0.036,NaN,0.071,NaN,NaN,NaN,NaN,NaN,NaN,NaN,NaN
Symmetric dimethylarginine,HMDB03334,2.835,3,s,NA,0.8954,1,CN\C(NCCC[C@H](N)C(O)=O)=N/C,InChIKey=HVPFXCBJHIIJGS-LURJTMIESA-N,14.58,-3,0.502,12.4,NaN,0.35,NaN,NaN,NaN,NaN,NaN,NaN,NaN,NaN
N-Acetylaspartylglutamic acid,HMDB01067,2.835,1,dd,16.86 5.20,0.103,-3,CC(=O)NC(CC(O)=O)C(=O)NC(CCC(O)=O)C(O)=O,InChIKey=OPVPGKGADVGKTG-UHFFFAOYSA-N,0.83,4.95,4.89,NaN,NaN,NaN,3.375,NaN,NaN,NaN,NaN,NaN,NaN,NaN
Deoxyadenosine,HMDB00101,2.835,1,ddd,14.00 7.58 6.20,0.2194,0,NC1=NC=NC2=C1N=CN2[C@H]1C[C@H](O)[C@@H](CO)O1,InChIKey=OLXZPDWKRNYJJZ-RRKCRQDMSA-N,1.86,-6.7,NaN,0.22,NaN,NaN,NaN,NaN,NaN,NaN,NaN,NaN,NaN,NaN
Loratadine,HMDB05000,2.835,2,m,NA,0.022,0,CCOC(=O)N1CCC(CC1)=C1C2=C(CCC3=CC=CN=C13)C=C(Cl)C=C2,InChIKey=JCCNYMKQOSZNPW-UHFFFAOYSA-N,1.87,10,NaN,NaN,NaN,NaN,NaN,NaN,NaN,NaN,NaN,NaN,NaN,NaN
Venlafaxine,HMDB05016,2.835,3,br. s.,NA,0.0495,1,COC1=CC=C(C=C1)C(CN(C)C)C1(O)CCCCC1,InChIKey=PNVNVHUZROJLTJ-UHFFFAOYSA-N,1.87,10,NaN,NaN,NaN,NaN,NaN,NaN,NaN,NaN,NaN,NaN,NaN,NaN
Verapamil,HMDB01850,2.835,2,t,NA,0.1388,1,COC1=C(OC)C=C(CCN(C)CCCC(C#N)(C(C)C)C2=CC(OC)=C(OC)C=C2)C=C1,InChIKey=SGTNSNPWRIOYBX-UHFFFAOYSA-N,12.45,-0.16,NaN,NaN,NaN,NaN,NaN,NaN,NaN,NaN,NaN,NaN,NaN,NaN
Thyroxine,HMDB00248,2.845,1,dd,14.33 8.61,0.0765,0,N[C@@H](CC1=CC(I)=C(OC2=CC(I)=C(O)C(I)=C2)C(I)=C1)C(O)=O,InChIKey=XUIIKFGFIJCVMT-LBPRGKRZSA-N,16.07,-5.9,2.00E-05,0.00032,NaN,0,NaN,NaN,NaN,NaN,NaN,NaN,NaN,NaN
Vitamin D3,HMDB00876,2.845,1,m,NA,0.0152,0,CC(C)CCC[C@@H](C)[C@H]1CCC2\C(CCC[C@]12C)=C\C=C1\C[C@@H](O)CCC1=C,InChIKey=QYSXJUFSXHHAJI-QWSSABAFSA-N,1.1,-3.6,0.03705,NaN,NaN,0.006,NaN,NaN,NaN,NaN,NaN,NaN,NaN,NaN
DL-Homocystine,HMDB00575,2.845,4,td,7.14 2.65,0.1967,0,NC(CCSSCCC(N)C(O)=O)C(O)=O,InChIKey=ZTVZLYBCZNMWCF-UHFFFAOYSA-N,1.87,0.033,9.8,0.21,NaN,NaN,NaN,NaN,NaN,NaN,NaN,NaN,NaN,NaN
Deoxyadenosine triphosphate,HMDB01532,2.845,1,ddd,13.95 6.87 6.65,0.0231,-3,NC1=NC=NC2=C1N=CN2[C@H]1C[C@H](O)[C@@H](COP(O)(=O)OP(O)(=O)OP(O)(O)=O)O1,InChIKey=SUYVUBYJARFZHO-RRKCRQDMSA-N,9.06,-4.2,NA,NA,NA,NA,NA,NA,NA,NA,NA,NA,NA,NA
Methylguanidine,HMDB01522,2.848,3,s,NA,0.7663,1,CNC(N)=N,InChIKey=CHJJGSNFBQVOTG-UHFFFAOYSA-N,3.52,-0.19,NA,0.696666667,NaN,NA,NA,NaN,NaN,NaN,NaN,NaN,NaN,NaN
Aldosterone,HMDB00037,2.855,1,t,NA,0.0276,0,C[C@]12CCC(=O)C=C1CCC1C3CC[C@H](C(=O)CO)[C@]3(C[C@H](O)C21)C=O,InChIKey=PQSUYGKTWSAVDQ-SRPWZAMTSA-N,4.03,-3,6.80E-05,0.01,NaN,NA,NaN,NaN,NaN,NaN,NaN,NaN,NaN,NaN
17a-Ethynylestradiol,HMDB01926,2.855,8,m,NA,0.2539,0,[H][C@@]12CC[C@@](O)(C#C)[C@@]1(C)CC[C@]1([H])C3=CC=C(O)C=C3CC[C@@]21[H],InChIKey=BFPYWIDHMRZLRN-SLHNCBLASA-N,18.38,9.27,0.00016,NaN,NaN,NaN,NaN,NaN,NaN,NaN,NaN,NaN,NaN,NaN
L-Asparagine,HMDB00168,2.855,5,m,NA,0.9241,0,N[C@@H](CC(N)=O)C(O)=O,InChIKey=DCXYFEDJOCDNAF-REOHCLBHSA-N,6.97,-5,47.825,9.715166667,NaN,NaN,5.505,NaN,NaN,NaN,NaN,NaN,NaN,NaN
3-Mercaptopyruvic acid,HMDB01368,2.855,26,d,14.19,0.9031,-1,OC(=O)C(=O)CS,InChIKey=OJOLFAIGOXZBCI-UHFFFAOYSA-N,10.13,10.59,NA,NA,NA,NA,NA,NA,NA,NA,NA,NA,NA,NA
Catechin,HMDB02780,2.855,1,dd,16.12 5.39,0.0748,0,O[C@H]1CC2=C(O)C=C(O)C=C2O[C@@H]1C1=CC(O)=C(O)C=C1,InChIKey=PFTAWBLQPZVEMU-DZGCQCFKSA-N,0.83,4.95,NaN,NaN,NaN,NaN,NaN,NaN,NaN,NaN,NaN,NaN,NaN,NaN
N-Acetyl-L-tyrosine,HMDB00866,2.855,6,dd,14.06 8.68,0.0786,-1,CC(=O)N[C@@H](CC1=CC=C(O)C=C1)C(O)=O,InChIKey=CAHKINHBCWCHCF-JTQLQIEISA-N,4.09,9.9,NaN,NaN,NaN,NaN,NaN,NaN,NaN,NaN,NaN,NaN,NaN,NaN
N-Acetylserotonin,HMDB01238,2.859,2,t,6.77,0.0442,0,CC(=O)NCCC1=CNC2=C1C=C(O)C=C2,InChIKey=MVAWJSIDNICKHF-UHFFFAOYSA-N,2.7,-1.4,NaN,NaN,NaN,NaN,NaN,NaN,NaN,NaN,NaN,NaN,NaN,NaN
(R)-2-Benzylsuccinate,HMDB12127,2.865,2,m,NA,0.2202,-2,OC(=O)C[C@H](CC1=CC=CC=C1)C(O)=O,InChIKey=GTOFKXZQQDSVFH-VIFPVBQESA-N,1.86,-4.8,NA,NA,NA,NA,NA,NA,NA,NA,NA,NA,NA,NA
Deoxyadenosine monophosphate,HMDB00905,2.865,1,m,NA,0.2874,-2,NC1=NC=NC2=C1N=CN2[C@H]1C[C@H](O)[C@@H](COP(O)(O)=O)O1,InChIKey=KHWCHTKSEGGWEX-RRKCRQDMSA-N,0.54,10.77,NA,NA,NA,NA,NA,NA,NA,NA,NA,NA,NA,NA
Lisinopril,HMDB01938,2.865,1,m,NA,0.2006,0,NCCCC[C@H](N[C@@H](CCC1=CC=CC=C1)C(O)=O)C(=O)N1CCC[C@H]1C(O)=O,InChIKey=RLAWWYSOJDYHDC-BZSNNMDCSA-N,2.04,-3,NA,NA,NA,NA,NA,NA,NA,NA,NA,NA,NA,NA
N.N-Dimethylaniline,HMDB01020,2.865,6,s,NA,1,0,CN(C)C1=CC=CC=C1,InChIKey=JLTDJTHDQAWBAV-UHFFFAOYSA-N,1.16,4.96,NA,NA,NA,NA,NA,NA,NA,NA,NA,NA,NA,NA
Uvaol,HMDB02391,2.865,0,dd,NA,0.0513,0,[H][C@@]12[C@@H](C)[C@H](C)CC[C@]1(CO)CC[C@]1(C)C2=CC[C@]2([H])[C@@]3(C)CC[C@H](O)C(C)(C)[C@]3([H])CC[C@@]12C,InChIKey=XUARCIYIVXVTAE-ZAPOICBTSA-N,13.56,-6.6,NA,NA,NA,NA,NA,NA,NA,NA,NA,NA,NA,NA
Alpha-Aspartyl-lysine,HMDB04987,2.865,7,dd,17.18 4.64,0.347,0,NCCCC[C@H](NC(=O)[C@@H](N)CC(O)=O)C(O)=O,InChIKey=OAMLVOVXNKILLQ-BQBZGAKWSA-N,1.87,10,NaN,NaN,NaN,NaN,NaN,NaN,NaN,NaN,NaN,NaN,NaN,NaN
Deoxyinosine,HMDB00071,2.865,1,m,NA,0.1056,0,OC[C@H]1O[C@H](C[C@@H]1O)N1C=NC2=C1N=CN=C2O,InChIKey=VGONTNSXDCQUGY-RRKCRQDMSA-N,3.53,-4.9,NaN,NA,NaN,NaN,NaN,NaN,NaN,NaN,NaN,NaN,NaN,NaN
Liothyronine,HMDB00265,2.865,1,dd,14.28 8.28,0.0589,0,N[C@@H](CC1=CC(I)=C(OC2=CC=C(O)C(I)=C2)C(I)=C1)C(O)=O,InChIKey=AUYYCJSJGJYCDS-LBPRGKRZSA-N,1.86,-2.8,NaN,NaN,NaN,0,NaN,NaN,NaN,NaN,NaN,NaN,NaN,NaN
N.N-Dimethylformamide,HMDB01888,2.865,3,d,0.77,0.6671,0,CN(C)C=O,InChIKey=ZMXDDKWLCZADIW-UHFFFAOYSA-N,9.48,-3.5,NaN,0.17,NaN,NaN,NaN,NaN,NaN,NaN,NaN,NaN,NaN,NaN
Oxoadipic acid,HMDB00225,2.865,2,t,7.16,0.8493,-2,OC(=O)CCCC(=O)C(O)=O,InChIKey=FGSBNBBHOZHUBO-UHFFFAOYSA-N,13.8,-3.5,NaN,NaN,NaN,NaN,NaN,NaN,NaN,NaN,NaN,NaN,NaN,NaN
Phloretin,HMDB03306,2.865,2,t,NA,0.2498,0,OC1=CC=C(CCC(=O)C2=C(O)C=C(O)C=C2O)C=C1,InChIKey=VGEREEWJJVICBM-UHFFFAOYSA-N,14.58,-3,NaN,NaN,NaN,NaN,NaN,NaN,NaN,NaN,NaN,NaN,NaN,NaN
Ranitidine,HMDB01930,2.865,3,s,NA,1,1,CN\C(NCCSCC1=CC=C(CN(C)C)O1)=C/[N+]([O-])=O,InChIKey=VMXUWOKSQNHOCA-UKTHLTGXSA-N,1.87,10,NaN,NaN,NaN,NaN,NaN,NaN,NaN,NaN,NaN,NaN,NaN,NaN
Vanillactic acid,HMDB00913,2.865,1,dd,NA,0.052,-1,COC1=CC(CC(O)C(O)=O)=CC=C1O,InChIKey=SVYIZYRTOYHQRE-UHFFFAOYSA-N,4.95,4.97,NaN,NaN,NaN,NaN,NaN,NaN,NaN,NaN,NaN,NaN,NaN,NaN
Chlorpheniramine,HMDB01944,2.875,5,s,NA,1,1,CN(C)CCC(C1=CC=C(Cl)C=C1)C1=CC=CC=N1,InChIKey=SOYKEARSMXGVTM-UHFFFAOYSA-N,1.87,10,NA,NA,NA,NA,NA,NA,NA,NA,NA,NA,NA,NA
Brompheniramine,HMDB01941,2.875,27,s,NA,1,1,CN(C)CCC(C1=CC=C(Br)C=C1)C1=CC=CC=N1,InChIKey=ZDIGNSYAACHWNL-UHFFFAOYSA-N,2.58,9.64,NaN,NaN,NaN,NaN,NaN,NaN,NaN,NaN,NaN,NaN,NaN,NaN
Nutriacholic acid,HMDB00467,2.875,2,dd,12.54 6.04,0.0673,-1,[H][C@@]12CCC([C@@H](C)CCC(O)=O)[C@@]1(C)CC[C@@]1([H])[C@@]2([H])C(=O)C[C@]2([H])C[C@H](O)CC[C@]12C,InChIKey=DXOCDBGWDZAYRQ-QPVZPPSOSA-N,3.78,-0.78,NaN,NaN,NaN,NaN,NaN,NaN,NaN,NaN,NaN,NaN,NaN,NaN
Cortisone,HMDB02802,2.885,1,d,12.16,0.1066,0,[H][C@@]12CC[C@](O)(C(=O)CO)[C@@]1(C)CC(=O)[C@@]1([H])[C@@]2([H])CCC2=CC(=O)CC[C@]12C,InChIKey=MFYSYFVPBJMHGN-ZPOLXVRWSA-N,17.79,2.77,0.0624,0.011,NaN,NaN,NaN,NaN,NaN,NaN,NaN,NaN,NaN,NaN
Hydroxyphenyllactic acid,HMDB00755,2.885,1,dd,14.16 7.57,0.3315,-1,OC(CC1=CC=C(O)C=C1)C(O)=O,InChIKey=JVGVDSSUAVXRDY-UHFFFAOYSA-N,-1.1,-3,0.64,1.1,NaN,25.1,NaN,NaN,NaN,NaN,NaN,NaN,NaN,NaN
Dopamine,HMDB00073,2.885,2,t,7.24,0.7217,1,NCCC1=CC=C(O)C(O)=C1,InChIKey=VYFYYTLLBUKUHU-UHFFFAOYSA-N,2.61,2.09,22.5,0.142333333,NaN,NaN,0.00325,NaN,NaN,NaN,NaN,NaN,NaN,NaN
Ethenodeoxyadenosine,HMDB01786,2.885,1,m,NA,0.181,0,OC[C@H]1O[C@H](C[C@@H]1O)N1C=NC2=C1N=CN1C=CN=C21,InChIKey=XQQIMTUYVDUWKJ-DJLDLDEBSA-N,7.67,4.94,NA,NA,NA,NA,NA,NA,NA,NA,NA,NA,NA,NA
6-Hydroxydopamine,HMDB01537,2.885,2,m,NA,0.0223,1,NCCC1=C(O)C=C(O)C(O)=C1,InChIKey=DIVDFFZHCJEHGG-UHFFFAOYSA-N,4.26,-0.19,NaN,NaN,NaN,NaN,NaN,NaN,NaN,NaN,NaN,NaN,NaN,NaN
D-Aspartic acid,HMDB06483,2.885,4,m,NA,1,-1,N[C@H](CC(O)=O)C(O)=O,InChIKey=CKLJMWTZIZZHCS-UWTATZPHSA-N,1.89,-6.6,NaN,NA,NaN,NaN,NaN,NaN,NaN,NaN,NaN,NaN,NaN,NaN
L-3-Phenyllactic acid,HMDB00748,2.885,1,dd,14.03 7.97,0.3553,-1,O[C@H](CC1=CC=CC=C1)C(O)=O,InChIKey=VOXXWSYKYCBWHO-MRVPVSSYSA-N,4.95,-3.8,NaN,NaN,NaN,NaN,NaN,NaN,NaN,NaN,NaN,NaN,NaN,NaN
Phenyllactic acid,HMDB00779,2.885,1,dd,14.03 7.97,0.3553,-1,OC(CC1=CC=CC=C1)C(O)=O,InChIKey=VOXXWSYKYCBWHO-UHFFFAOYSA-N,9.34,4.95,NaN,NaN,NaN,3.77,NaN,NaN,NaN,NaN,NaN,NaN,NaN,NaN
3-Phenoxypropionic acid,HMDB02229,2.895,1,m,NA,0.9694,-1,OC(=O)CCOC1=CC=CC=C1,InChIKey=BUSOTUQRURCMCM-UHFFFAOYSA-N,2.84,6.63,NA,NA,NA,NA,NA,NA,NA,NA,NA,NA,NA,NA
Deacetyldiltiazem,HMDB02873,2.895,6,s,NA,1,1,COC1=CC=C(C=C1)[C@@H]1SC2=CC=CC=C2N(CCN(C)C)C(=O)[C@@H]1O,InChIKey=NZHUXMZTSSZXSB-MOPGFXCFSA-N,2.52,-4,NA,NA,NA,NA,NA,NA,NA,NA,NA,NA,NA,NA
Diphenhydramine,HMDB01927,2.895,6,s,NA,1,1,CN(C)CCOC(C1=CC=CC=C1)C1=CC=CC=C1,InChIKey=ZZVUWRFHKOJYTH-UHFFFAOYSA-N,1.87,10,NaN,NaN,NaN,NaN,NaN,NaN,NaN,NaN,NaN,NaN,NaN,NaN
Hydrocinnamic acid,HMDB00764,2.895,2,t,7.73,0.7286,-1,OC(=O)CCC1=CC=CC=C1,InChIKey=XMIIGOLPHOKFCH-UHFFFAOYSA-N,18.2,2.62,NaN,NaN,NaN,44.28,NaN,NaN,NaN,NaN,NaN,NaN,NaN,NaN
5-Hydroxytryptophol,HMDB01855,2.905,1,t,7.35,0.2937,0,OCCC1=CNC2=CC=C(O)C=C12,InChIKey=KQROHCSYOGBQGJ-UHFFFAOYSA-N,1.44,-2.9,9.00E-04,NaN,NaN,NaN,0.004,NaN,NaN,NaN,NaN,NaN,NaN,NaN
Trimethylamine,HMDB00906,2.905,7,s,NA,1,1,CN(C)C,InChIKey=GETQZCLCWQTVFV-UHFFFAOYSA-N,0.89,-3.6,0.42,7.7,NaN,89.86,0.0679,NaN,NaN,NaN,NaN,NaN,NaN,NaN
3-Methoxybenzenepropanoic acid,HMDB11751,2.905,17,t,7.62,0.1268,-1,COC1=CC(CCC(O)=O)=CC=C1,InChIKey=BJJQJLOZWBZEGA-UHFFFAOYSA-N,1.86,-6.7,NaN,NaN,NaN,NaN,NaN,NaN,NaN,NaN,NaN,NaN,NaN,NaN
D-threo-Isocitric acid,HMDB01874,2.905,2,dd,NA,0.9668,-3,O[C@H]([C@H](CC(O)=O)C(O)=O)C(O)=O,InChIKey=ODBLHEXUDAPZAU-ZAFYKAAXSA-N,2.67,4.95,NaN,NaN,NaN,NaN,NaN,NaN,NaN,NaN,NaN,NaN,NaN,NaN
5-Methoxydimethyltryptamine,HMDB02004,2.915,6,s,NA,1,1,COC1=CC2=C(NC=C2CCN(C)C)C=C1,InChIKey=ZSTKHSQDNIGFLM-UHFFFAOYSA-N,0.83,4.99,0.21,0.02,NaN,NaN,NaN,NaN,NaN,NaN,NaN,NaN,NaN,NaN
Azythromycin,HMDB01916,2.915,1,dd,NA,0.023,2,CC[C@@H]1OC(=O)[C@H](C)[C@@H](O[C@@H]2C[C@](C)(OC)[C@H](O)[C@@H](C)O2)[C@@H](C)[C@H](O[C@H]2O[C@@H](C)C[C@H]([C@@H]2O)N(C)C)[C@@](C)(O)C[C@H](C)CN(C)[C@@H](C)[C@@H](O)[C@]1(C)O,InChIKey=MQTOSJVFKKJCRP-HHZDEWPHSA-N,3.84,1.99,NA,NA,NA,NA,NA,NA,NA,NA,NA,NA,NA,NA
Epicatechin,HMDB01871,2.925,1,m,NA,0.2176,0,O[C@@H]1CC2=C(O)C=C(O)C=C2O[C@@H]1C1=CC(O)=C(O)C=C1,InChIKey=PFTAWBLQPZVEMU-UKRRQHHQSA-N,1.73,4.95,0.625,0.13,NaN,NaN,NaN,NaN,NaN,NaN,NaN,NaN,NaN,NaN
Dimethylglycine,HMDB00092,2.925,6,s,NA,1,0,CN(C)CC(O)=O,InChIKey=FFDGPVCHZBVARC-UHFFFAOYSA-N,10.33,-3,2.25,4.8,NaN,4.9,NaN,NaN,NaN,NaN,NaN,NaN,NaN,NaN
N-Acetyl-L-phenylalanine,HMDB00512,2.925,1,dd,13.91 8.99,0.0633,-1,CC(=O)N[C@@H](CC1=CC=CC=C1)C(O)=O,InChIKey=CBQJSKKFNMDLON-JTQLQIEISA-N,4.15,9.5,NaN,NaN,NaN,NaN,NaN,NaN,NaN,NaN,NaN,NaN,NaN,NaN
Ranitidine,HMDB01930,2.925,2,br. s.,NA,0.0945,1,CN\C(NCCSCC1=CC=C(CN(C)C)O1)=C/[N+]([O-])=O,InChIKey=VMXUWOKSQNHOCA-UKTHLTGXSA-N,1.87,10,NaN,NaN,NaN,NaN,NaN,NaN,NaN,NaN,NaN,NaN,NaN,NaN
1-Methylhistamine,HMDB00898,2.935,2,t,7.06,0.3001,1,CN1C=NC(CCN)=C1,InChIKey=FHQDWPCFSJMNCT-UHFFFAOYSA-N,1.78,-1.2,0.00034,0.097666667,NaN,0.0117,0.002,NaN,NaN,NaN,NaN,NaN,NaN,NaN