Metabolite,HMDB Name,Shift (ppm),Hs,Type,J (Hz),Height,Physiological Charge,SMILES,InChlKey,pKa (Strongest Acidic),pKa (Strongest Basic),Blood,Urine,Feces,Saliva,Cerebrospinal Fluid (CSF),Amniotic Fluid,Aqueous Humour,Ascites Fluid,Breast Milk,Lymph,Sweat,Tears
Indoxyl,HMDB04094,7.315,1,br. s.,NA,0.0368,0,OC1=CNC2=CC=CC=C12,InChIKey=PCKPVGOLPKLUHR-UHFFFAOYSA-N,1.86,-6.7,NA,NA,NA,NA,NA,NA,NA,NA,NA,NA,NA,NA
3-(3-Hydroxyphenyl)-3-hydroxypropanoic acid,HMDB02643,7.315,1,t,7.87,0.9287,-1,OC(CC(O)=O)C1=CC(O)=CC=C1,InChIKey=KHTAGVZHYUZYMF-UHFFFAOYSA-N,8.27,-2.8,NaN,8.275,NaN,NaN,NaN,NaN,NaN,NaN,NaN,NaN,NaN,NaN
3-Methoxybenzenepropanoic acid,HMDB11751,7.315,10,t,7.9,0.1036,-1,COC1=CC(CCC(O)=O)=CC=C1,InChIKey=BJJQJLOZWBZEGA-UHFFFAOYSA-N,1.86,-6.7,NaN,NaN,NaN,NaN,NaN,NaN,NaN,NaN,NaN,NaN,NaN,NaN
Hydrocinnamic acid,HMDB00764,7.315,5,m,NA,0.6803,-1,OC(=O)CCC1=CC=CC=C1,InChIKey=XMIIGOLPHOKFCH-UHFFFAOYSA-N,18.2,2.62,NaN,NaN,NaN,44.28,NaN,NaN,NaN,NaN,NaN,NaN,NaN,NaN
Naringenin,HMDB02670,7.315,2,m,NA,0.044,0,OC1=CC=C(C=C1)[C@@H]1CC(=O)C2=C(O)C=C(O)C=C2O1,InChIKey=FTVWIRXFELQLPI-ZDUSSCGKSA-N,18.2,9.79,NaN,NaN,NaN,NaN,NaN,NaN,NaN,NaN,NaN,NaN,NaN,NaN
5-Methoxydimethyltryptamine,HMDB02004,7.325,1,s,NA,0.0766,1,COC1=CC2=C(NC=C2CCN(C)C)C=C1,InChIKey=ZSTKHSQDNIGFLM-UHFFFAOYSA-N,0.83,4.99,0.21,0.02,NaN,NaN,NaN,NaN,NaN,NaN,NaN,NaN,NaN,NaN
L-Tryptophan,HMDB00929,7.325,12,s,NA,NA,0,N[C@@H](CC1=CNC2=CC=CC=C12)C(O)=O,InChIKey=QIVBCDIJIAJPQS-VIFPVBQESA-N,1.86,4.79,58.96666667,4.8066,NaN,2.65,7.335,NaN,NaN,NaN,NaN,NaN,NaN,NaN
5-Methoxytryptophan,HMDB02339,7.325,1,s,NA,0.1396,0,COC1=CC2=C(NC=C2C[C@H](N)C(O)=O)C=C1,InChIKey=KVNPSKDDJARYKK-JTQLQIEISA-N,11.59,10,NA,NA,NA,NA,NA,NA,NA,NA,NA,NA,NA,NA
2-Methylhippuric acid,HMDB11723,7.325,3,m,NA,0.2145,-1,CC1=CC=CC=C1C(=O)NCC(O)=O,InChIKey=YOEBAVRJHRCKRE-UHFFFAOYSA-N,1.86,-6.7,NaN,NaN,NaN,NaN,NaN,NaN,NaN,NaN,NaN,NaN,NaN,NaN
3-Indolebutyric acid,HMDB02096,7.325,1,d,8.09,0.2978,-1,OC(=O)CCCC1=CNC2=CC=CC=C12,InChIKey=JTEDVYBZBROSJT-UHFFFAOYSA-N,3.62,-3.6,NaN,NaN,NaN,NaN,NaN,NaN,NaN,NaN,NaN,NaN,NaN,NaN
L-Aspartyl-L-phenylalanine,HMDB00706,7.325,3,d,7.11,0.5821,-1,N[C@@H](CC(O)=O)C(=O)N[C@@H](CC1=CC=CC=C1)C(O)=O,InChIKey=YZQCXOFQZKCETR-UWVGGRQHSA-N,0.63,-3.6,NaN,NaN,NaN,NaN,NaN,NaN,NaN,NaN,NaN,NaN,NaN,NaN
Naringin,HMDB02927,7.325,2,d,0.33,0.0518,0,C[C@@H]1O[C@@H](O[C@@H]2[C@@H](O)[C@H](O)[C@@H](CO)O[C@H]2OC2=CC(O)=C3C(=O)C[C@H](OC3=C2)C2=CC=C(O)C=C2)[C@H](O)[C@H](O)[C@H]1O,InChIKey=DFPMSGMNTNDNHN-ZPHOTFPESA-N,3.04,-3.3,NaN,NaN,NaN,NaN,NaN,NaN,NaN,NaN,NaN,NaN,NaN,NaN
trans-Ferulic acid,HMDB00954,7.328,1,d,15.96,0.1462,-1,COC1=C(O)C=CC(\C=C\C(O)=O)=C1,InChIKey=KSEBMYQBYZTDHS-HWKANZROSA-N,0.83,-1.6,0.039,0.5,NaN,NaN,NaN,NaN,NaN,NaN,NaN,NaN,NaN,NaN
L-Phenylalanine,HMDB00159,7.335,2,d,6.96,1,0,N[C@@H](CC1=CC=CC=C1)C(O)=O,InChIKey=COLNVLDHVKWLRT-QMMMGPOBSA-N,3.72,-2.8,86.86,4.467,NaN,NA,9.05,NaN,NaN,NaN,NaN,NaN,NaN,NaN
Lisinopril,HMDB01938,7.335,2,m,NA,1,0,NCCCC[C@H](N[C@@H](CCC1=CC=CC=C1)C(O)=O)C(=O)N1CCC[C@H]1C(O)=O,InChIKey=RLAWWYSOJDYHDC-BZSNNMDCSA-N,2.04,-3,NA,NA,NA,NA,NA,NA,NA,NA,NA,NA,NA,NA
5-Methoxytryptamine,HMDB04095,7.335,1,s,NA,0.2018,1,COC1=CC2=C(NC=C2CCN)C=C1,InChIKey=JTEJPPKMYBDEMY-UHFFFAOYSA-N,1.86,-6.7,NaN,NaN,NaN,NaN,NaN,NaN,NaN,NaN,NaN,NaN,NaN,NaN
Acetaminophen,HMDB01859,7.335,1,d,8.66,0.3716,0,CC(=O)NC1=CC=C(O)C=C1,InChIKey=RZVAJINKPMORJF-UHFFFAOYSA-N,14.23,4.95,NaN,8.2,NaN,NaN,11,NaN,NaN,NaN,NaN,NaN,NaN,NaN
Benzyl alcohol,HMDB03119,7.335,1,m,NA,0.1418,0,OCC1=CC=CC=C1,InChIKey=WVDDGKGOMKODPV-UHFFFAOYSA-N,14.58,-3,NaN,NaN,NaN,NaN,NaN,NaN,NaN,NaN,NaN,NaN,NaN,NaN
Loperamide,HMDB04999,7.335,1,t,7.07,0.4266,1,CN(C)C(=O)C(CCN1CCC(O)(CC1)C1=CC=C(Cl)C=C1)(C1=CC=CC=C1)C1=CC=CC=C1,InChIKey=RDOIQAHITMMDAJ-UHFFFAOYSA-N,1.87,10,NaN,NaN,NaN,NaN,NaN,NaN,NaN,NaN,NaN,NaN,NaN,NaN
N-Acetyl-L-phenylalanine,HMDB00512,7.335,5,m,NA,0.2055,-1,CC(=O)N[C@@H](CC1=CC=CC=C1)C(O)=O,InChIKey=CBQJSKKFNMDLON-JTQLQIEISA-N,4.15,9.5,NaN,NaN,NaN,NaN,NaN,NaN,NaN,NaN,NaN,NaN,NaN,NaN
Tryptamine,HMDB00303,7.335,1,s,NA,0.5954,1,NCCC1=CNC2=CC=CC=C12,InChIKey=APJYDQYYACXCRM-UHFFFAOYSA-N,4.39,-0.16,NaN,0.026,NaN,NaN,NaN,NaN,NaN,NaN,NaN,NaN,NaN,NaN
Clotrimazole,HMDB01922,7.345,1,m,NA,0.0524,0,ClC1=CC=CC=C1C(N1C=CN=C1)(C1=CC=CC=C1)C1=CC=CC=C1,InChIKey=VNFPBHJOKIVQEB-UHFFFAOYSA-N,10.23,-1.7,NA,NA,NA,NA,NA,NA,NA,NA,NA,NA,NA,NA
Salicin,HMDB03546,7.345,1,dd,7.45 1.35,0.0669,0,OC[C@H]1O[C@@H](OC2=C(CO)C=CC=C2)[C@H](O)[C@@H](O)[C@@H]1O,InChIKey=NGFMICBWJRZIBI-UJPOAAIJSA-N,14.58,-3,NA,NA,NA,NA,NA,NA,NA,NA,NA,NA,NA,NA
Tolnaftate,HMDB05005,7.345,1,m,NA,0.0079,0,CN(C(=S)OC1=CC2=CC=CC=C2C=C1)C1=CC=CC(C)=C1,InChIKey=FUSNMLFNXJSCDI-UHFFFAOYSA-N,1.87,10,NA,NA,NA,NA,NA,NA,NA,NA,NA,NA,NA,NA
L-3-Phenyllactic acid,HMDB00748,7.345,5,m,NA,1,-1,O[C@H](CC1=CC=CC=C1)C(O)=O,InChIKey=VOXXWSYKYCBWHO-MRVPVSSYSA-N,4.95,-3.8,NaN,NaN,NaN,NaN,NaN,NaN,NaN,NaN,NaN,NaN,NaN,NaN
m-Coumaric acid,HMDB01713,7.345,2,m,NA,0.9553,-1,OC(=O)\C=C\C1=CC=CC(O)=C1,InChIKey=KKSDGJDHHZEWEP-SNAWJCMRSA-N,9.43,1.59,NaN,0.065142857,NaN,NaN,NaN,NaN,NaN,NaN,NaN,NaN,NaN,NaN
Parathion,HMDB01355,7.345,2,dd,NA,0.0154,0,CCOP(=S)(OCC)OC1=CC=C(C=C1)[N+]([O-])=O,InChIKey=LCCNCVORNKJIRZ-UHFFFAOYSA-N,10.71,9.71,NaN,NaN,NaN,NaN,NaN,NaN,NaN,NaN,NaN,NaN,NaN,NaN
Phenyllactic acid,HMDB00779,7.345,5,m,NA,1,-1,OC(CC1=CC=CC=C1)C(O)=O,InChIKey=VOXXWSYKYCBWHO-UHFFFAOYSA-N,9.34,4.95,NaN,NaN,NaN,3.77,NaN,NaN,NaN,NaN,NaN,NaN,NaN,NaN
Chlorpheniramine,HMDB01944,7.355,3,m,NA,0.2268,1,CN(C)CCC(C1=CC=C(Cl)C=C1)C1=CC=CC=N1,InChIKey=SOYKEARSMXGVTM-UHFFFAOYSA-N,1.87,10,NA,NA,NA,NA,NA,NA,NA,NA,NA,NA,NA,NA
Indole-3-carbinol,HMDB05785,7.355,1,d,NA,0.0669,0,OCC1=CNC2=CC=CC=C12,InChIKey=IVYPNXXAYMYVSP-UHFFFAOYSA-N,1.87,10,NA,NA,NA,NA,NA,NA,NA,NA,NA,NA,NA,NA
Aspartame,HMDB01894,7.355,1,tt,7.39 2.47,0.0986,0,COC(=O)[C@H](CC1=CC=CC=C1)NC(=O)[C@@H](N)CC(O)=O,InChIKey=IAOZJIPTCAWIRG-QWRGUYRKSA-N,13.45,-2.7,NaN,NaN,NaN,NaN,NaN,NaN,NaN,NaN,NaN,NaN,NaN,NaN
Brompheniramine,HMDB01941,7.355,4,m,NA,0.0515,1,CN(C)CCC(C1=CC=C(Br)C=C1)C1=CC=CC=N1,InChIKey=ZDIGNSYAACHWNL-UHFFFAOYSA-N,2.58,9.64,NaN,NaN,NaN,NaN,NaN,NaN,NaN,NaN,NaN,NaN,NaN,NaN
Myricetin,HMDB02755,7.355,2,s,NA,0.1401,-1,OC1=CC(O)=C2C(OC(=C(O)C2=O)C2=CC(O)=C(O)C(O)=C2)=C1,InChIKey=IKMDFBPHZNJCSN-UHFFFAOYSA-N,1.52,-7.1,NaN,NaN,NaN,NaN,NaN,NaN,NaN,NaN,NaN,NaN,NaN,NaN
Phenylephrine,HMDB02182,7.355,1,t,7.85,0.17,1,CNC[C@H](O)C1=CC(O)=CC=C1,InChIKey=SONNWYBIRXJNDC-VIFPVBQESA-N,4.82,9.25,NaN,NaN,NaN,NaN,NaN,NaN,NaN,NaN,NaN,NaN,NaN,NaN
Kynurenic acid,HMDB00715,7.364,1,ddd,8.13 7.06 0.95,0.3119,-1,OC(=O)C1=CC(=O)C2=CC=CC=C2N1,InChIKey=HCZHHEIFKROPDY-UHFFFAOYSA-N,1.48,9.57,0.0265,1.34,NaN,NaN,NaN,NaN,NaN,NaN,NaN,NaN,NaN,NaN
Phenylacetylglycine,HMDB00821,7.364,2,m,NA,0.4755,-1,OC(=O)CNC(=O)CC1=CC=CC=C1,InChIKey=UTYVDVLMYQPLQB-UHFFFAOYSA-N,1.79,-1.2,NaN,65,NaN,19.55,NaN,NaN,NaN,NaN,NaN,NaN,NaN,NaN
(R)-2-Benzylsuccinate,HMDB12127,7.365,2,t,7.53,0.5053,-2,OC(=O)C[C@H](CC1=CC=CC=C1)C(O)=O,InChIKey=GTOFKXZQQDSVFH-VIFPVBQESA-N,1.86,-4.8,NA,NA,NA,NA,NA,NA,NA,NA,NA,NA,NA,NA
Lansoprazole,HMDB05008,7.365,2,m,NA,0.1029,0,CC1=C(OCC(F)(F)F)C=CN=C1CS(=O)C1=NC2=CC=CC=C2N1,InChIKey=MJIHNNLFOKEZEW-UHFFFAOYSA-N,1.87,10,NA,NA,NA,NA,NA,NA,NA,NA,NA,NA,NA,NA
N.N-Dimethylaniline,HMDB01020,7.365,2,m,NA,0.0444,0,CN(C)C1=CC=CC=C1,InChIKey=JLTDJTHDQAWBAV-UHFFFAOYSA-N,1.16,4.96,NA,NA,NA,NA,NA,NA,NA,NA,NA,NA,NA,NA
Coumarin,HMDB01218,7.365,1,d,8.33,0.3892,0,O=C1OC2=CC=CC=C2C=C1,InChIKey=ZYGHJZDHTFUPRJ-UHFFFAOYSA-N,18.92,-7.1,NaN,NaN,NaN,NaN,NaN,NaN,NaN,NaN,NaN,NaN,NaN,NaN
Riboflavin,HMDB00244,7.375,2,s,NA,0.46,-1,CC1=C(C)C=C2N(C[C@H](O)[C@H](O)[C@H](O)CO)C3=NC(=O)NC(=O)C3=NC2=C1,InChIKey=AUNGANRZJHBGPY-SCRDCRAPSA-N,4.17,-3,0.015,0.18,NaN,0.058,NaN,NaN,NaN,NaN,NaN,NaN,NaN,NaN
5-Hydroxyindoleacetic acid,HMDB00763,7.375,1,d,8.65,0.2781,-1,OC(=O)CC1=CNC2=CC=C(O)C=C12,InChIKey=DUUGKQCEGZLZNO-UHFFFAOYSA-N,3.16,4.95,0.0516,1.55,NaN,NaN,0.082666667,NaN,NaN,NaN,NaN,NaN,NaN,NaN
L-Phenylalanine,HMDB00159,7.375,1,m,NA,0.466,0,N[C@@H](CC1=CC=CC=C1)C(O)=O,InChIKey=COLNVLDHVKWLRT-QMMMGPOBSA-N,3.72,-2.8,86.86,4.467,NaN,NA,9.05,NaN,NaN,NaN,NaN,NaN,NaN,NaN
Phenylacetic acid,HMDB00209,7.375,2,m,NA,0.234,-1,OC(=O)CC1=CC=CC=C1,InChIKey=WLJVXDMOQOGPHL-UHFFFAOYSA-N,11.3,-0.16,NA,2.12,NaN,47.04,NaN,NaN,NaN,NaN,NaN,NaN,NaN,NaN
Triamterene,HMDB01940,7.375,1,m,NA,0.007,0,NC1=NC(N)=C2N=C(C(N)=NC2=N1)C1=CC=CC=C1,InChIKey=FNYLWPVRPXGIIP-UHFFFAOYSA-N,7.22,1.14,NA,NA,NA,NA,NA,NA,NA,NA,NA,NA,NA,NA
Protocatechuic acid,HMDB01856,7.375,1,dd,8.27 2.09,0.4637,-1,OC(=O)C1=CC(O)=C(O)C=C1,InChIKey=YQUVCSBJEUQKSH-UHFFFAOYSA-N,17.65,5.53,NaN,NaN,NaN,NaN,NaN,NaN,NaN,NaN,NaN,NaN,NaN,NaN
Indoxyl sulfate,HMDB00682,7.377,1,s,NA,0.4098,-1,OS(=O)(=O)OC1=CNC2=CC=CC=C12,InChIKey=BXFFHSIDQOFMLE-UHFFFAOYSA-N,14.58,-3,2.49,NA,NaN,NaN,NaN,NaN,NaN,NaN,NaN,NaN,NaN,NaN
Urocanic acid,HMDB00301,7.385,1,s,NA,1,-1,OC(=O)\C=C\C1=CNC=N1,InChIKey=LOIYMIARKYCTBW-OWOJBTEDSA-N,11.61,-2.8,0.43,NaN,NaN,NaN,NaN,NaN,NaN,NaN,NaN,NaN,NaN,NaN
L-Kynurenine,HMDB00684,7.385,0,ddd,8.38 7.03 1.43,0.0462,0,N[C@@H](CC(=O)C1=CC=CC=C1N)C(O)=O,InChIKey=YGPSJZOEDVAXAB-QMMMGPOBSA-N,13.62,0.28,1.5,1.63,NaN,NaN,0.0019,NaN,NaN,NaN,NaN,NaN,NaN,NaN
2-Phenylbutyric acid,HMDB00329,7.385,37,m,NA,1,-1,CCC(C(O)=O)C1=CC=CC=C1,InChIKey=OFJWFSNDPCAWDK-UHFFFAOYSA-N,3.35,-0.18,NA,NA,NA,NA,NA,NA,NA,NA,NA,NA,NA,NA
Amlodipine,HMDB05018,7.385,1,dd,7.98 1.10,0.1013,1,CCOC(=O)C1=C(COCCN)NC(C)=C(C1C1=CC=CC=C1Cl)C(=O)OC,InChIKey=HTIQEAQVCYTUBX-UHFFFAOYSA-N,1.87,10,NA,NA,NA,NA,NA,NA,NA,NA,NA,NA,NA,NA
Clotrimazole,HMDB01922,7.385,6,m,NA,0.2923,0,ClC1=CC=CC=C1C(N1C=CN=C1)(C1=CC=CC=C1)C1=CC=CC=C1,InChIKey=VNFPBHJOKIVQEB-UHFFFAOYSA-N,10.23,-1.7,NA,NA,NA,NA,NA,NA,NA,NA,NA,NA,NA,NA
Luteolin,HMDB05800,7.385,2,m,NA,0.0565,-1,OC1=CC2=C(C(O)=C1)C(=O)C=C(O2)C1=CC=C(O)C(O)=C1,InChIKey=IQPNAANSBPBGFQ-UHFFFAOYSA-N,1.87,10,NA,NA,NA,NA,NA,NA,NA,NA,NA,NA,NA,NA
3-Methoxy-4-Hydroxyphenylglycol sulfate,HMDB03332,7.385,1,d,8.25,0.1625,-1,COC1=C(O)C=CC(=C1)C(CO)OS(O)(=O)=O,InChIKey=SBKADJXSGGTEPN-UHFFFAOYSA-N,14.58,-3,NaN,NaN,NaN,NaN,NaN,NaN,NaN,NaN,NaN,NaN,NaN,NaN
Thymine,HMDB00262,7.385,1,s,NA,0.249,0,CC1=CNC(=O)NC1=O,InChIKey=RWQNBRDOKXIBIV-UHFFFAOYSA-N,4.41,-6,NaN,0.202,NaN,4.7375,NA,NaN,NaN,NaN,NaN,NaN,NaN,NaN
Xanthurenic acid,HMDB00881,7.385,24,dd,8.29 0.92,0.386,-1,OC(=O)C1=NC2=C(O)C=CC=C2C(O)=C1,InChIKey=FBZONXHGGPHHIY-UHFFFAOYSA-N,8.16,-1.6,NaN,1.28,NaN,NaN,NaN,NaN,NaN,NaN,NaN,NaN,NaN,NaN
Diphenhydramine,HMDB01927,7.387,2,tt,7.29 1.65,0.1133,1,CN(C)CCOC(C1=CC=CC=C1)C1=CC=CC=C1,InChIKey=ZZVUWRFHKOJYTH-UHFFFAOYSA-N,1.87,10,NaN,NaN,NaN,NaN,NaN,NaN,NaN,NaN,NaN,NaN,NaN,NaN
Phenylacetylglycine,HMDB00821,7.392,1,m,NA,0.7517,-1,OC(=O)CNC(=O)CC1=CC=CC=C1,InChIKey=UTYVDVLMYQPLQB-UHFFFAOYSA-N,1.79,-1.2,NaN,65,NaN,19.55,NaN,NaN,NaN,NaN,NaN,NaN,NaN,NaN
Doxylamine,HMDB01936,7.394,2,m,6.25 5.01 1.28 1.12,0.1054,1,CN(C)CCOC(C)(C1=CC=CC=C1)C1=NC=CC=C1,InChIKey=HCFDWZZGGLSKEP-UHFFFAOYSA-N,4.63,8.61,NA,NA,NA,NA,NA,NA,NA,NA,NA,NA,NA,NA
Daidzein,HMDB03312,7.395,2,m,NA,0.7283,-1,OC1=CC=C(C=C1)C1=COC2=C(C=CC(O)=C2)C1=O,InChIKey=ZQSIJRDFPHDXIC-UHFFFAOYSA-N,14.58,-3,NaN,4.11,NaN,NaN,NaN,NaN,NaN,NaN,NaN,NaN,NaN,NaN
Mandelic acid,HMDB00703,7.395,9,m,NA,0.1172,-1,O[C@H](C(O)=O)C1=CC=CC=C1,InChIKey=IWYDHOAUDWTVEP-ZETCQYMHSA-N,11.6,-4.9,NaN,0.7315,NaN,NaN,NaN,NaN,NaN,NaN,NaN,NaN,NaN,NaN
Anabasine,HMDB04350,7.405,1,ddd,NA,0.0438,1,C1CCC(NC1)C1=CN=CC=C1,InChIKey=MTXSIJUGVMTTMU-UHFFFAOYSA-N,1.86,-4.8,0.0031,4.4,NaN,NaN,NaN,NaN,NaN,NaN,NaN,NaN,NaN,NaN
Riboflavin,HMDB00244,7.405,2,s,NA,0.3701,-1,CC1=C(C)C=C2N(C[C@H](O)[C@H](O)[C@H](O)CO)C3=NC(=O)NC(=O)C3=NC2=C1,InChIKey=AUNGANRZJHBGPY-SCRDCRAPSA-N,4.17,-3,0.015,0.18,NaN,0.058,NaN,NaN,NaN,NaN,NaN,NaN,NaN,NaN
5-Hydroxy-L-tryptophan,HMDB00472,7.405,14,d,8.69,0.8243,0,NC(CC1=CNC2=C1C=C(O)C=C2)C(O)=O,InChIKey=LDCYZAJDBXYCGN-UHFFFAOYSA-N,4.65,9.53,0.018,0.0078,NaN,NaN,NaN,NaN,NaN,NaN,NaN,NaN,NaN,NaN
Chlorpheniramine,HMDB01944,7.405,2,m,NA,0.1736,1,CN(C)CCC(C1=CC=C(Cl)C=C1)C1=CC=CC=N1,InChIKey=SOYKEARSMXGVTM-UHFFFAOYSA-N,1.87,10,NA,NA,NA,NA,NA,NA,NA,NA,NA,NA,NA,NA
Tryptophanol,HMDB03447,7.405,1,d,NA,0.1384,0,OCCC1=CNC2=CC=CC=C12,InChIKey=MBBOMCVGYCRMEA-UHFFFAOYSA-N,14.58,-3,NA,NA,NA,NA,NA,NA,NA,NA,NA,NA,NA,NA
Benzyl alcohol,HMDB03119,7.405,5,d,4.26,1,0,OCC1=CC=CC=C1,InChIKey=WVDDGKGOMKODPV-UHFFFAOYSA-N,14.58,-3,NaN,NaN,NaN,NaN,NaN,NaN,NaN,NaN,NaN,NaN,NaN,NaN
Cinnamic acid,HMDB00567,7.405,1,d,16.01,0.6771,-1,OC(=O)\C=C/C1=CC=CC=C1,InChIKey=WBYWAXJHAXSJNI-SREVYHEPSA-N,4.2,-2.7,NaN,NaN,NaN,NaN,NaN,NaN,NaN,NaN,NaN,NaN,NaN,NaN
L-Aspartyl-L-phenylalanine,HMDB00706,7.405,5,m,NA,0.7437,-1,N[C@@H](CC(O)=O)C(=O)N[C@@H](CC1=CC=CC=C1)C(O)=O,InChIKey=YZQCXOFQZKCETR-UWVGGRQHSA-N,0.63,-3.6,NaN,NaN,NaN,NaN,NaN,NaN,NaN,NaN,NaN,NaN,NaN,NaN
Naproxen,HMDB01923,7.405,1,dd,NA,0.0381,-1,COC1=CC2=C(C=C1)C=C(C=C2)[C@H](C)C(O)=O,InChIKey=CMWTZPSULFXXJA-VIFPVBQESA-N,0.87,-0.34,NaN,NaN,NaN,NaN,NaN,NaN,NaN,NaN,NaN,NaN,NaN,NaN
Lisinopril,HMDB01938,7.415,1,t,NA,0.5571,0,NCCCC[C@H](N[C@@H](CCC1=CC=CC=C1)C(O)=O)C(=O)N1CCC[C@H]1C(O)=O,InChIKey=RLAWWYSOJDYHDC-BZSNNMDCSA-N,2.04,-3,NA,NA,NA,NA,NA,NA,NA,NA,NA,NA,NA,NA
Thymidine 3'.5'-cyclic monophosphate,HMDB01570,7.415,1,d,1.21,0.2327,-1,CC1=CN([C@H]2CC3OP(O)(=O)OCC3O2)C(=O)NC1=O,InChIKey=QSJFDOVQWZVUQG-KAVNDROISA-N,4.82,-1.5,NA,NA,NA,NA,NA,NA,NA,NA,NA,NA,NA,NA
Aspartame,HMDB01894,7.415,2,m,NA,0.2206,0,COC(=O)[C@H](CC1=CC=CC=C1)NC(=O)[C@@H](N)CC(O)=O,InChIKey=IAOZJIPTCAWIRG-QWRGUYRKSA-N,13.45,-2.7,NaN,NaN,NaN,NaN,NaN,NaN,NaN,NaN,NaN,NaN,NaN,NaN
Indole,HMDB00738,7.415,1,d,2.75,NA,0,N1C=CC2=C1C=CC=C2,InChIKey=SIKJAQJRHWYJAI-UHFFFAOYSA-N,19.78,12.39,NaN,NaN,NaN,NaN,NaN,NaN,NaN,NaN,NaN,NaN,NaN,NaN
Protocatechuic acid,HMDB01856,7.415,2,d,2.1,0.8716,-1,OC(=O)C1=CC(O)=C(O)C=C1,InChIKey=YQUVCSBJEUQKSH-UHFFFAOYSA-N,17.65,5.53,NaN,NaN,NaN,NaN,NaN,NaN,NaN,NaN,NaN,NaN,NaN,NaN
Triamterene,HMDB01940,7.425,2,m,NA,0.015,0,NC1=NC(N)=C2N=C(C(N)=NC2=N1)C1=CC=CC=C1,InChIKey=FNYLWPVRPXGIIP-UHFFFAOYSA-N,7.22,1.14,NA,NA,NA,NA,NA,NA,NA,NA,NA,NA,NA,NA
Loperamide,HMDB04999,7.425,10,m,NA,1,1,CN(C)C(=O)C(CCN1CCC(O)(CC1)C1=CC=C(Cl)C=C1)(C1=CC=CC=C1)C1=CC=CC=C1,InChIKey=RDOIQAHITMMDAJ-UHFFFAOYSA-N,1.87,10,NaN,NaN,NaN,NaN,NaN,NaN,NaN,NaN,NaN,NaN,NaN,NaN
Serotonin,HMDB00259,7.425,1,d,8.71,0.5087,1,NCCC1=CNC2=CC=C(O)C=C12,InChIKey=QZAYGJVTTNCVMB-UHFFFAOYSA-N,4.51,-0.4,NaN,0.065,NaN,NaN,0.00345,NaN,NaN,NaN,NaN,NaN,NaN,NaN
Phenylacetylglycine,HMDB00821,7.427,2,s,NA,0.7517,-1,OC(=O)CNC(=O)CC1=CC=CC=C1,InChIKey=UTYVDVLMYQPLQB-UHFFFAOYSA-N,1.79,-1.2,NaN,65,NaN,19.55,NaN,NaN,NaN,NaN,NaN,NaN,NaN,NaN
Doxylamine,HMDB01936,7.431,4,s,NA,0.7315,1,CN(C)CCOC(C)(C1=CC=CC=C1)C1=NC=CC=C1,InChIKey=HCFDWZZGGLSKEP-UHFFFAOYSA-N,4.63,8.61,NA,NA,NA,NA,NA,NA,NA,NA,NA,NA,NA,NA
3-Nitrotyrosine,HMDB01904,7.435,1,dd,8.72 2.17,0.5642,-1,N[C@@H](CC1=CC(=C(O)C=C1)[N+]([O-])=O)C(O)=O,InChIKey=FBTSQILOGYXGMD-LURJTMIESA-N,3.73,-1.4,0.85,NaN,NaN,NaN,3.36,NaN,NaN,NaN,NaN,NaN,NaN,NaN
L-Phenylalanine,HMDB00159,7.435,2,m,NA,0.91,0,N[C@@H](CC1=CC=CC=C1)C(O)=O,InChIKey=COLNVLDHVKWLRT-QMMMGPOBSA-N,3.72,-2.8,86.86,4.467,NaN,NA,9.05,NaN,NaN,NaN,NaN,NaN,NaN,NaN
Indole-3-carboxylic acid,HMDB03320,7.435,1,m,NA,0.0267,-1,OC(=O)C1=CNC2=CC=CC=C12,InChIKey=KMAKOBLIOCQGJP-UHFFFAOYSA-N,14.58,-3,NA,NA,NA,NA,NA,NA,NA,NA,NA,NA,NA,NA
Hydroxykynurenine,HMDB00732,7.435,1,d,NA,0.0422,0,NC(CC(=O)C1=C(N)C(O)=CC=C1)C(O)=O,InChIKey=VCKPUUFAIGNJHC-UHFFFAOYSA-N,0.83,-3.3,NaN,NaN,NaN,NaN,NaN,NaN,NaN,NaN,NaN,NaN,NaN,NaN
Mandelic acid,HMDB00703,7.435,32,d,4.21,1,-1,O[C@H](C(O)=O)C1=CC=CC=C1,InChIKey=IWYDHOAUDWTVEP-ZETCQYMHSA-N,11.6,-4.9,NaN,0.7315,NaN,NaN,NaN,NaN,NaN,NaN,NaN,NaN,NaN,NaN
Melatonin,HMDB01389,7.435,1,d,8.83,0.1757,0,COC1=CC2=C(NC=C2CCNC(C)=O)C=C1,InChIKey=DRLFMBDRBRZALE-UHFFFAOYSA-N,4.12,-7.2,NaN,NaN,NaN,NaN,NaN,NaN,NaN,NaN,NaN,NaN,NaN,NaN
Quinolinic acid,HMDB00232,7.445,2,dd,7.84,0.7042,-2,OC(=O)C1=CC=CN=C1C(O)=O,InChIKey=GJAWHXHKYYXBSV-UHFFFAOYSA-N,4.65,-6.3,0.47,2.5,NaN,NaN,0.044,NaN,NaN,NaN,NaN,NaN,NaN,NaN
Quinolinic acid,HMDB00232,7.445,2,dd,4.93,0.7042,-2,OC(=O)C1=CC=CN=C1C(O)=O,InChIKey=GJAWHXHKYYXBSV-UHFFFAOYSA-N,4.65,-6.3,0.47,2.5,NaN,NaN,0.044,NaN,NaN,NaN,NaN,NaN,NaN,NaN
Anatabine,HMDB04476,7.445,1,ddd,7.91 4.88 0.80,0.0686,1,C1N[C@@H](CC=C1)C1=CN=CC=C1,InChIKey=SOPPBXUYQGUQHE-JTQLQIEISA-N,1.86,-6.7,NA,NA,NA,NA,NA,NA,NA,NA,NA,NA,NA,NA
Clotrimazole,HMDB01922,7.445,1,td,NA,0.0532,0,ClC1=CC=CC=C1C(N1C=CN=C1)(C1=CC=CC=C1)C1=CC=CC=C1,InChIKey=VNFPBHJOKIVQEB-UHFFFAOYSA-N,10.23,-1.7,NA,NA,NA,NA,NA,NA,NA,NA,NA,NA,NA,NA
Flavone,HMDB03075,7.445,1,m,NA,0.2983,0,O=C1C=C(OC2=CC=CC=C12)C1=CC=CC=C1,InChIKey=VHBFFQKBGNRLFZ-UHFFFAOYSA-N,1.86,-0.52,NA,NA,NA,NA,NA,NA,NA,NA,NA,NA,NA,NA
Indoleacrylic acid,HMDB00734,7.445,1,m,NA,0.0836,-1,OC(=O)\C=C\C1=CC2=C(N1)C=CC=C2,InChIKey=SXOUIMVOMIGLHO-AATRIKPKSA-N,4.15,8.86,NA,NA,NA,NA,NA,NA,NA,NA,NA,NA,NA,NA
Ondansetron,HMDB05035,7.445,1,s,NA,0.0311,1,CN1C2=C(C3=CC=CC=C13)C(=O)C(CN1C=CN=C1C)CC2,InChIKey=FELGMEQIXOGIFQ-UHFFFAOYSA-N,1.87,10,NA,NA,NA,NA,NA,NA,NA,NA,NA,NA,NA,NA
2.4-Dichlorophenol,HMDB04811,7.445,1,d,2.53,0.116,0,OC1=CC=C(Cl)C=C1Cl,InChIKey=HFZWRUODUSTPEG-UHFFFAOYSA-N,1.86,-4.8,NaN,NaN,NaN,NaN,NaN,NaN,NaN,NaN,NaN,NaN,NaN,NaN
2-Methylhippuric acid,HMDB11723,7.445,2,m,NA,0.272,-1,CC1=CC=CC=C1C(=O)NCC(O)=O,InChIKey=YOEBAVRJHRCKRE-UHFFFAOYSA-N,1.86,-6.7,NaN,NaN,NaN,NaN,NaN,NaN,NaN,NaN,NaN,NaN,NaN,NaN
Brompheniramine,HMDB01941,7.445,6,d,7.96,0.0932,1,CN(C)CCC(C1=CC=C(Br)C=C1)C1=CC=CC=N1,InChIKey=ZDIGNSYAACHWNL-UHFFFAOYSA-N,2.58,9.64,NaN,NaN,NaN,NaN,NaN,NaN,NaN,NaN,NaN,NaN,NaN,NaN
Phenylpropanolamine,HMDB01942,7.445,1,m,NA,0.5943,1,C[C@@H](N)[C@@H](O)C1=CC=CC=C1,InChIKey=DLNKOYKMWOXYQA-VXNVDRBHSA-N,1.87,10,NaN,NaN,NaN,NaN,NaN,NaN,NaN,NaN,NaN,NaN,NaN,NaN
trans-Cinnamic acid,HMDB00930,7.445,4,m,NA,0.7189,-1,OC(=O)\C=C\C1=CC=CC=C1,InChIKey=WBYWAXJHAXSJNI-VOTSOKGWSA-N,1.81,-3.4,NaN,NaN,NaN,NaN,NaN,NaN,NaN,NaN,NaN,NaN,NaN,NaN
Diphenhydramine,HMDB01927,7.447,4,t,7.6,0.2588,1,CN(C)CCOC(C1=CC=CC=C1)C1=CC=CC=C1,InChIKey=ZZVUWRFHKOJYTH-UHFFFAOYSA-N,1.87,10,NaN,NaN,NaN,NaN,NaN,NaN,NaN,NaN,NaN,NaN,NaN,NaN
Chalcone,HMDB03066,7.455,3,m,NA,0.1675,0,O=C(\C=C\C1=CC=CC=C1)C1=CC=CC=C1,InChIKey=DQFBYFPFKXHELB-VAWYXSNFSA-N,1.86,-0.52,NA,NA,NA,NA,NA,NA,NA,NA,NA,NA,NA,NA
Chlorpheniramine,HMDB01944,7.455,3,m,NA,0.0876,1,CN(C)CCC(C1=CC=C(Cl)C=C1)C1=CC=CC=N1,InChIKey=SOYKEARSMXGVTM-UHFFFAOYSA-N,1.87,10,NA,NA,NA,NA,NA,NA,NA,NA,NA,NA,NA,NA
Tolnaftate,HMDB05005,7.455,3,m,NA,0.0131,0,CN(C(=S)OC1=CC2=CC=CC=C2C=C1)C1=CC=CC(C)=C1,InChIKey=FUSNMLFNXJSCDI-UHFFFAOYSA-N,1.87,10,NA,NA,NA,NA,NA,NA,NA,NA,NA,NA,NA,NA
2-Phenylglycine,HMDB02210,7.455,2,m,NA,0.2245,0,NC(C(O)=O)C1=CC=CC=C1,InChIKey=ZGUNAGUHMKGQNY-UHFFFAOYSA-N,9.64,-3.6,NaN,NaN,NaN,NaN,NaN,NaN,NaN,NaN,NaN,NaN,NaN,NaN
Cinnamic acid,HMDB00567,7.455,3,m,NA,0.8699,-1,OC(=O)\C=C/C1=CC=CC=C1,InChIKey=WBYWAXJHAXSJNI-SREVYHEPSA-N,4.2,-2.7,NaN,NaN,NaN,NaN,NaN,NaN,NaN,NaN,NaN,NaN,NaN,NaN
Pseudoephedrine,HMDB01943,7.455,46,m,NA,0.3849,1,CN[C@@H](C)[C@@H](O)C1=CC=CC=C1,InChIKey=KWGRBVOPPLSCSI-WCBMZHEXSA-N,1.79,-0.1,NaN,NaN,NaN,NaN,NaN,NaN,NaN,NaN,NaN,NaN,NaN,NaN
Vanillic acid,HMDB00484,7.465,3,dd,8.28 1.78,0.1286,-1,COC1=CC(=CC=C1O)C(O)=O,InChIKey=WKOLLVMJNQIZCI-UHFFFAOYSA-N,4.62,-1.4,4.8,11.2,NaN,NaN,NaN,NaN,NaN,NaN,NaN,NaN,NaN,NaN
5-Methoxytryptophan,HMDB02339,7.465,1,d,8.8,0.1482,0,COC1=CC2=C(NC=C2C[C@H](N)C(O)=O)C=C1,InChIKey=KVNPSKDDJARYKK-JTQLQIEISA-N,11.59,10,NA,NA,NA,NA,NA,NA,NA,NA,NA,NA,NA,NA
Ondansetron,HMDB05035,7.465,1,m,NA,0.0222,1,CN1C2=C(C3=CC=CC=C13)C(=O)C(CN1C=CN=C1C)CC2,InChIKey=FELGMEQIXOGIFQ-UHFFFAOYSA-N,1.87,10,NA,NA,NA,NA,NA,NA,NA,NA,NA,NA,NA,NA
Phenylpropiolic acid,HMDB02359,7.465,2,m,NA,0.3503,-1,OC(=O)C#CC1=CC=CC=C1,InChIKey=XNERWVPQCYSMLC-UHFFFAOYSA-N,4.88,10,NA,NA,NA,NA,NA,NA,NA,NA,NA,NA,NA,NA
3-Pyridylacetic acid,HMDB01538,7.465,1,dd,7.76 5.06,0.1003,-1,OC(=O)CC1=CN=CC=C1,InChIKey=WGNUNYPERJMVRM-UHFFFAOYSA-N,12.11,-0.61,NaN,NaN,NaN,NaN,NaN,NaN,NaN,NaN,NaN,NaN,NaN,NaN
Cinnamaldehyde,HMDB03441,7.465,3,m,NA,0.1042,0,O=C\C=C\C1=CC=CC=C1,InChIKey=KJPRLNWUNMBNBZ-QPJJXVBHSA-N,14.58,-3,NaN,NaN,NaN,NaN,NaN,NaN,NaN,NaN,NaN,NaN,NaN,NaN
5-Methoxydimethyltryptamine,HMDB02004,7.475,1,d,8.8,0.0599,1,COC1=CC2=C(NC=C2CCN(C)C)C=C1,InChIKey=ZSTKHSQDNIGFLM-UHFFFAOYSA-N,0.83,4.99,0.21,0.02,NaN,NaN,NaN,NaN,NaN,NaN,NaN,NaN,NaN,NaN