Metabolite,HMDB Name,Shift (ppm),Hs,Type,J (Hz),Height,Physiological Charge,SMILES,InChlKey,pKa (Strongest Acidic),pKa (Strongest Basic),Blood,Urine,Feces,Saliva,Cerebrospinal Fluid (CSF),Amniotic Fluid,Aqueous Humour,Ascites Fluid,Breast Milk,Lymph,Sweat,Tears
5-Methoxysalicylic acid,HMDB01868,7.155,1,dd,9.00 3.17,0.0835,-1,COC1=CC(C(O)=O)=C(O)C=C1,InChIKey=IZZIWIAOVZOBLF-UHFFFAOYSA-N,11.57,4.95,NaN,NaN,NaN,NaN,NaN,NaN,NaN,NaN,NaN,NaN,NaN,NaN
Indole,HMDB00738,7.155,1,dt,7.50 0.61,0.2769,0,N1C=CC2=C1C=CC=C2,InChIKey=SIKJAQJRHWYJAI-UHFFFAOYSA-N,19.78,12.39,NaN,NaN,NaN,NaN,NaN,NaN,NaN,NaN,NaN,NaN,NaN,NaN
o-Cresol,HMDB02055,7.155,1,m,NA,0.079,0,CC1=CC=CC=C1O,InChIKey=QWVGKYWNOKOFNN-UHFFFAOYSA-N,9.51,-1.6,NaN,NaN,NaN,NaN,NaN,NaN,NaN,NaN,NaN,NaN,NaN,NaN
p-Hydroxyphenylacetic acid,HMDB00020,7.165,2,d,8.65,0.3727,-1,OC(=O)CC1=CC=C(O)C=C1,InChIKey=XQXPVVBIMDBYFF-UHFFFAOYSA-N,18.3,-1.9,0.23,9.2,NaN,16.055,NaN,NaN,NaN,NaN,NaN,NaN,NaN,NaN
4-Hydroxyphenylpyruvic acid,HMDB00707,7.165,1,m,NA,0.5825,-1,OC(=O)C(=O)CC1=CC=C(O)C=C1,InChIKey=KKADPXVIOXHVKN-UHFFFAOYSA-N,4.05,1.36,0.37,NaN,NaN,NaN,NaN,NaN,NaN,NaN,NaN,NaN,NaN,NaN
Indoleacetic acid,HMDB00197,7.165,1,dd,NA,0.2822,-1,OC(=O)CC1=CNC2=C1C=CC=C2,InChIKey=SEOVTRFCIGRIMH-UHFFFAOYSA-N,7.61,-2.2,0.983333333,5.6,NaN,1.6455,0.029,NaN,NaN,NaN,NaN,NaN,NaN,NaN
Imipramine,HMDB01848,7.165,7,m,NA,0.141,1,CN(C)CCCN1C2=CC=CC=C2CCC2=CC=CC=C12,InChIKey=BCGWQEUPMDMJNV-UHFFFAOYSA-N,2.98,9.73,NA,NA,NA,NA,NA,NA,NA,NA,NA,NA,NA,NA
Indole-3-carboxylic acid,HMDB03320,7.165,2,m,NA,0.0356,-1,OC(=O)C1=CNC2=CC=CC=C12,InChIKey=KMAKOBLIOCQGJP-UHFFFAOYSA-N,14.58,-3,NA,NA,NA,NA,NA,NA,NA,NA,NA,NA,NA,NA
Tolnaftate,HMDB05005,7.165,3,br. s.,NA,0.0157,0,CN(C(=S)OC1=CC2=CC=CC=C2C=C1)C1=CC=CC(C)=C1,InChIKey=FUSNMLFNXJSCDI-UHFFFAOYSA-N,1.87,10,NA,NA,NA,NA,NA,NA,NA,NA,NA,NA,NA,NA
Tryptophanol,HMDB03447,7.165,1,t,NA,0.1273,0,OCCC1=CNC2=CC=CC=C12,InChIKey=MBBOMCVGYCRMEA-UHFFFAOYSA-N,14.58,-3,NA,NA,NA,NA,NA,NA,NA,NA,NA,NA,NA,NA
Caffeic acid,HMDB01964,7.165,19,d,1.92,1,-1,OC(=O)\C=C/C1=CC=C(O)C(O)=C1,InChIKey=QAIPRVGONGVQAS-RQOWECAXSA-N,19.34,-1.6,NaN,NaN,NaN,NaN,NaN,NaN,NaN,NaN,NaN,NaN,NaN,NaN
Isoferulic acid,HMDB00955,7.165,1,m,NA,0.4458,-1,COC1=C(O)C=C(\C=C\C(O)=O)C=C1,InChIKey=QURCVMIEKCOAJU-HWKANZROSA-N,3.24,-6.3,NaN,NaN,NaN,NaN,NaN,NaN,NaN,NaN,NaN,NaN,NaN,NaN
Loratadine,HMDB05000,7.165,1,dd,NA,0.0293,0,CCOC(=O)N1CCC(CC1)=C1C2=C(CCC3=CC=CN=C13)C=C(Cl)C=C2,InChIKey=JCCNYMKQOSZNPW-UHFFFAOYSA-N,1.87,10,NaN,NaN,NaN,NaN,NaN,NaN,NaN,NaN,NaN,NaN,NaN,NaN
N-Acetyl-L-tyrosine,HMDB00866,7.165,19,d,8.46,0.385,-1,CC(=O)N[C@@H](CC1=CC=C(O)C=C1)C(O)=O,InChIKey=CAHKINHBCWCHCF-JTQLQIEISA-N,4.09,9.9,NaN,NaN,NaN,NaN,NaN,NaN,NaN,NaN,NaN,NaN,NaN,NaN
Indolelactic acid,HMDB00671,7.172,1,td,7.49 0.98,0.6959,-1,OC(CC1=CNC2=C1C=CC=C2)C(O)=O,InChIKey=XGILAAMKEQUXLS-UHFFFAOYSA-N,7.6,5,2.8,0.46,NaN,NaN,NaN,NaN,NaN,NaN,NaN,NaN,NaN,NaN
17a-Ethynylestradiol,HMDB01926,7.175,6,d,8.33,0.2672,0,[H][C@@]12CC[C@@](O)(C#C)[C@@]1(C)CC[C@]1([H])C3=CC=C(O)C=C3CC[C@@]21[H],InChIKey=BFPYWIDHMRZLRN-SLHNCBLASA-N,18.38,9.27,0.00016,NaN,NaN,NaN,NaN,NaN,NaN,NaN,NaN,NaN,NaN,NaN
Iodotyrosine,HMDB00021,7.175,1,dd,8.32 2.15,0.4619,0,N[C@@H](CC1=CC=C(O)C(I)=C1)C(O)=O,InChIKey=UQTZMGFTRHFAAM-ZETCQYMHSA-N,18.27,-1.4,0.00069,NaN,NaN,NaN,NaN,NaN,NaN,NaN,NaN,NaN,NaN,NaN
Clotrimazole,HMDB01922,7.175,4,m,NA,0.1613,0,ClC1=CC=CC=C1C(N1C=CN=C1)(C1=CC=CC=C1)C1=CC=CC=C1,InChIKey=VNFPBHJOKIVQEB-UHFFFAOYSA-N,10.23,-1.7,NA,NA,NA,NA,NA,NA,NA,NA,NA,NA,NA,NA
Indoxyl,HMDB04094,7.175,1,m,NA,0.0266,0,OC1=CNC2=CC=CC=C12,InChIKey=PCKPVGOLPKLUHR-UHFFFAOYSA-N,1.86,-6.7,NA,NA,NA,NA,NA,NA,NA,NA,NA,NA,NA,NA
3-Indolepropionic acid,HMDB02302,7.175,12,t,7.76,0.6725,-1,OC(=O)CCC1=CNC2=CC=CC=C12,InChIKey=GOLXRNDWAUTYKT-UHFFFAOYSA-N,2.45,-2.9,NaN,NaN,NaN,NaN,NaN,NaN,NaN,NaN,NaN,NaN,NaN,NaN
3-Methoxy-4-Hydroxyphenylglycol sulfate,HMDB03332,7.175,1,d,1.93,0.1576,-1,COC1=C(O)C=CC(=C1)C(CO)OS(O)(=O)=O,InChIKey=SBKADJXSGGTEPN-UHFFFAOYSA-N,14.58,-3,NaN,NaN,NaN,NaN,NaN,NaN,NaN,NaN,NaN,NaN,NaN,NaN
m-Coumaric acid,HMDB01713,7.175,1,d,7.69,0.6807,-1,OC(=O)\C=C\C1=CC=CC(O)=C1,InChIKey=KKSDGJDHHZEWEP-SNAWJCMRSA-N,9.43,1.59,NaN,0.065142857,NaN,NaN,NaN,NaN,NaN,NaN,NaN,NaN,NaN,NaN
Xanthurenic acid,HMDB00881,7.175,23,t,8.01,0.4053,-1,OC(=O)C1=NC2=C(O)C=CC=C2C(O)=C1,InChIKey=FBZONXHGGPHHIY-UHFFFAOYSA-N,8.16,-1.6,NaN,1.28,NaN,NaN,NaN,NaN,NaN,NaN,NaN,NaN,NaN,NaN
3-Methylindole,HMDB00466,7.177,1,ddd,7.50 7.05 0.80,0.1477,0,CC1=CNC2=C1C=CC=C2,InChIKey=ZFRKQXVRDFCRJG-UHFFFAOYSA-N,2.76,-0.88,NaN,NaN,NaN,NaN,NaN,NaN,NaN,NaN,NaN,NaN,NaN,NaN
N-Acetylserotonin,HMDB01238,7.183,1,d,8.65,0.0276,0,CC(=O)NCCC1=CNC2=C1C=C(O)C=C2,InChIKey=MVAWJSIDNICKHF-UHFFFAOYSA-N,2.7,-1.4,NaN,NaN,NaN,NaN,NaN,NaN,NaN,NaN,NaN,NaN,NaN,NaN
Hydroxyphenyllactic acid,HMDB00755,7.185,2,d,8.24,1,-1,OC(CC1=CC=C(O)C=C1)C(O)=O,InChIKey=JVGVDSSUAVXRDY-UHFFFAOYSA-N,-1.1,-3,0.64,1.1,NaN,25.1,NaN,NaN,NaN,NaN,NaN,NaN,NaN,NaN
L-Tyrosine,HMDB00158,7.185,2,m,NA,0.03,0,N[C@@H](CC1=CC=C(O)C=C1)C(O)=O,InChIKey=OUYCCCASQSFEME-QMMMGPOBSA-N,4.22,-3.3,99.625,10.466,NaN,NA,9.125,NaN,NaN,NaN,NaN,NaN,NaN,NaN
3-Methylindole,HMDB00466,7.189,1,d,0.88,0.1477,0,CC1=CNC2=C1C=CC=C2,InChIKey=ZFRKQXVRDFCRJG-UHFFFAOYSA-N,2.76,-0.88,NaN,NaN,NaN,NaN,NaN,NaN,NaN,NaN,NaN,NaN,NaN,NaN
Aniline,HMDB03012,7.195,2,t,7.56,0.9624,0,NC1=CC=CC=C1,InChIKey=PAYRUJLWNCNPSJ-UHFFFAOYSA-N,3.6,-0.18,NaN,NaN,NaN,NaN,NaN,NaN,NaN,NaN,NaN,NaN,NaN,NaN
5-Methoxydimethyltryptamine,HMDB02004,7.205,1,d,2.42,0.0643,1,COC1=CC2=C(NC=C2CCN(C)C)C=C1,InChIKey=ZSTKHSQDNIGFLM-UHFFFAOYSA-N,0.83,4.99,0.21,0.02,NaN,NaN,NaN,NaN,NaN,NaN,NaN,NaN,NaN,NaN
Amlodipine,HMDB05018,7.205,1,m,NA,0.0819,1,CCOC(=O)C1=C(COCCN)NC(C)=C(C1C1=CC=CC=C1Cl)C(=O)OC,InChIKey=HTIQEAQVCYTUBX-UHFFFAOYSA-N,1.87,10,NA,NA,NA,NA,NA,NA,NA,NA,NA,NA,NA,NA
2-Furoylglycine,HMDB00439,7.205,1,d,3.13,0.3232,-1,OC(=O)CNC(=O)C1=CC=CO1,InChIKey=KSPQDMRTZZYQLM-UHFFFAOYSA-N,18.3,-3.7,NaN,9.95,NaN,NaN,NaN,NaN,NaN,NaN,NaN,NaN,NaN,NaN
Chlorogenic acid,HMDB03164,7.205,1,d,1.56,0.2933,-1,O[C@@H]1C[C@](O)(C[C@@H](OC(=O)\C=C\C2=CC(O)=C(O)C=C2)[C@@H]1O)C(O)=O,InChIKey=CWVRJTMFETXNAD-JUHZACGLSA-N,14.58,-3,NaN,NaN,NaN,NaN,NaN,NaN,NaN,NaN,NaN,NaN,NaN,NaN
L-Aspartyl-L-phenylalanine,HMDB00706,7.205,2,m,NA,0.2255,-1,N[C@@H](CC(O)=O)C(=O)N[C@@H](CC1=CC=CC=C1)C(O)=O,InChIKey=YZQCXOFQZKCETR-UWVGGRQHSA-N,0.63,-3.6,NaN,NaN,NaN,NaN,NaN,NaN,NaN,NaN,NaN,NaN,NaN,NaN
L-Tryptophan,HMDB00929,7.209,11,m,NA,NA,0,N[C@@H](CC1=CNC2=CC=CC=C12)C(O)=O,InChIKey=QIVBCDIJIAJPQS-VIFPVBQESA-N,1.86,4.79,58.96666667,4.8066,NaN,2.65,7.335,NaN,NaN,NaN,NaN,NaN,NaN,NaN
5-Methoxytryptophol,HMDB01896,7.215,1,d,8.75,0.105,0,COC1=CC=C2NC=C(CCO)C2=C1,InChIKey=QLWKTGDEPLRFAT-UHFFFAOYSA-N,16.44,-0.18,0.00015,NaN,NaN,NaN,NaN,NaN,NaN,NaN,NaN,NaN,NaN,NaN
5-Hydroxyindoleacetic acid,HMDB00763,7.215,1,s,NA,0.2811,-1,OC(=O)CC1=CNC2=CC=C(O)C=C12,InChIKey=DUUGKQCEGZLZNO-UHFFFAOYSA-N,3.16,4.95,0.0516,1.55,NaN,NaN,0.082666667,NaN,NaN,NaN,NaN,NaN,NaN,NaN
L-Thyronine,HMDB00667,7.215,2,d,8.58,0.2158,0,N[C@@H](CC1=CC=C(OC2=CC=C(O)C=C2)C=C1)C(O)=O,InChIKey=KKCIOUWDFWQUBT-AWEZNQCLSA-N,3.41,9.57,0.29,0.0024,NaN,NaN,NaN,NaN,NaN,NaN,NaN,NaN,NaN,NaN
Phenylpyruvic acid,HMDB00205,7.215,1,m,NA,0.0447,-1,OC(=O)C(=O)CC1=CC=CC=C1,InChIKey=BTNMPGBKDVTSJY-UHFFFAOYSA-N,2.98,-3.8,0.5,NaN,NaN,NaN,NaN,NaN,NaN,NaN,NaN,NaN,NaN,NaN
Benzenebutanoic acid,HMDB00543,7.215,3,m,NA,1,-1,OC(=O)CCCC1=CC=CC=C1,InChIKey=OBKXEAXTFZPCHS-UHFFFAOYSA-N,3.47,8.99,NA,NA,NA,NA,NA,NA,NA,NA,NA,NA,NA,NA
Indoleacrylic acid,HMDB00734,7.215,2,m,NA,0.095,-1,OC(=O)\C=C\C1=CC2=C(N1)C=CC=C2,InChIKey=SXOUIMVOMIGLHO-AATRIKPKSA-N,4.15,8.86,NA,NA,NA,NA,NA,NA,NA,NA,NA,NA,NA,NA
2.4-Dichlorophenol,HMDB04811,7.215,1,d,8.75,0.0809,0,OC1=CC=C(Cl)C=C1Cl,InChIKey=HFZWRUODUSTPEG-UHFFFAOYSA-N,1.86,-4.8,NaN,NaN,NaN,NaN,NaN,NaN,NaN,NaN,NaN,NaN,NaN,NaN
3-Chlorotyrosine,HMDB01885,7.215,1,d,2.15,0.7589,0,NC(CC1=CC(Cl)=C(O)C=C1)C(O)=O,InChIKey=ACWBBAGYTKWBCD-UHFFFAOYSA-N,18.22,-0.88,NaN,7.00E-04,NaN,NaN,NaN,NaN,NaN,NaN,NaN,NaN,NaN,NaN
3-Indolepropionic acid,HMDB02302,7.215,11,s,NA,0.7306,-1,OC(=O)CCC1=CNC2=CC=CC=C12,InChIKey=GOLXRNDWAUTYKT-UHFFFAOYSA-N,2.45,-2.9,NaN,NaN,NaN,NaN,NaN,NaN,NaN,NaN,NaN,NaN,NaN,NaN
m-Cresol,HMDB02048,7.215,1,t,7.81,0.17,0,CC1=CC(O)=CC=C1,InChIKey=RLSSMJSEOOYNOY-UHFFFAOYSA-N,8.76,-1.6,NaN,0.13,NaN,NaN,NaN,NaN,NaN,NaN,NaN,NaN,NaN,NaN
Naproxen,HMDB01923,7.215,1,d,2.42,0.0539,-1,COC1=CC2=C(C=C1)C=C(C=C2)[C@H](C)C(O)=O,InChIKey=CMWTZPSULFXXJA-VIFPVBQESA-N,0.87,-0.34,NaN,NaN,NaN,NaN,NaN,NaN,NaN,NaN,NaN,NaN,NaN,NaN
o-Tyrosine,HMDB06050,7.215,1,dd,7.95 1.51,0.1488,0,NC(CC1=CC=CC=C1O)C(O)=O,InChIKey=WRFPVMFCRNYQNR-UHFFFAOYSA-N,1.08,-3.6,NaN,NaN,NaN,NaN,NaN,NaN,NaN,NaN,NaN,NaN,NaN,NaN
Phenylpropionylglycine,HMDB00860,7.215,24,m,NA,0.8523,-1,OC(=O)CNC(=O)CCC1=CC=CC=C1,InChIKey=YEIQSAXUPKPPBN-UHFFFAOYSA-N,12.42,5.3,NaN,NaN,NaN,NaN,NaN,NaN,NaN,NaN,NaN,NaN,NaN,NaN
Tryptamine,HMDB00303,7.215,1,t,7.47,0.3911,1,NCCC1=CNC2=CC=CC=C12,InChIKey=APJYDQYYACXCRM-UHFFFAOYSA-N,4.39,-0.16,NaN,0.026,NaN,NaN,NaN,NaN,NaN,NaN,NaN,NaN,NaN,NaN
Indoxyl sulfate,HMDB00682,7.224,1,dd,NA,0.3013,-1,OS(=O)(=O)OC1=CNC2=CC=CC=C12,InChIKey=BXFFHSIDQOFMLE-UHFFFAOYSA-N,14.58,-3,2.49,NA,NaN,NaN,NaN,NaN,NaN,NaN,NaN,NaN,NaN,NaN
2-Phenylaminoadenosine,HMDB01069,7.225,2,t,NA,0.0287,0,NC1=C2N=CN(C3OC(CO)C(O)C3O)C2=NC(NC2=CC=CC=C2)=N1,InChIKey=SCNILGOVBBRMBK-UHFFFAOYSA-N,0.9,7.43,NA,NA,NA,NA,NA,NA,NA,NA,NA,NA,NA,NA
Indole-3-carbinol,HMDB05785,7.225,1,s,NA,0.1104,0,OCC1=CNC2=CC=CC=C12,InChIKey=IVYPNXXAYMYVSP-UHFFFAOYSA-N,1.87,10,NA,NA,NA,NA,NA,NA,NA,NA,NA,NA,NA,NA
Ondansetron,HMDB05035,7.225,1,m,NA,0.0202,1,CN1C2=C(C3=CC=CC=C13)C(=O)C(CN1C=CN=C1C)CC2,InChIKey=FELGMEQIXOGIFQ-UHFFFAOYSA-N,1.87,10,NA,NA,NA,NA,NA,NA,NA,NA,NA,NA,NA,NA
Salicin,HMDB03546,7.225,1,dd,NA,0.1069,0,OC[C@H]1O[C@@H](OC2=C(CO)C=CC=C2)[C@H](O)[C@@H](O)[C@@H]1O,InChIKey=NGFMICBWJRZIBI-UJPOAAIJSA-N,14.58,-3,NA,NA,NA,NA,NA,NA,NA,NA,NA,NA,NA,NA
4-Methoxyphenylacetic acid,HMDB02072,7.225,2,d,8.44,0.2258,-1,COC1=CC=C(CC(O)=O)C=C1,InChIKey=NRPFNQUDKRYCNX-UHFFFAOYSA-N,13.04,6.91,NaN,NaN,NaN,NaN,NaN,NaN,NaN,NaN,NaN,NaN,NaN,NaN
Hydroxyphenylacetylglycine,HMDB00735,7.225,1,d,8.42,0.6207,-1,OC(=O)CNC(=O)CC1=CC=C(O)C=C1,InChIKey=CPPDWYIPKSSNNM-UHFFFAOYSA-N,3.98,4.99,NaN,NaN,NaN,NaN,NaN,NaN,NaN,NaN,NaN,NaN,NaN,NaN
Loratadine,HMDB05000,7.225,1,d,NA,0.0421,0,CCOC(=O)N1CCC(CC1)=C1C2=C(CCC3=CC=CN=C13)C=C(Cl)C=C2,InChIKey=JCCNYMKQOSZNPW-UHFFFAOYSA-N,1.87,10,NaN,NaN,NaN,NaN,NaN,NaN,NaN,NaN,NaN,NaN,NaN,NaN
Melatonin,HMDB01389,7.225,2,d,2.29,0.2082,0,COC1=CC2=C(NC=C2CCNC(C)=O)C=C1,InChIKey=DRLFMBDRBRZALE-UHFFFAOYSA-N,4.12,-7.2,NaN,NaN,NaN,NaN,NaN,NaN,NaN,NaN,NaN,NaN,NaN,NaN
o-Cresol,HMDB02055,7.225,1,m,NA,0.0733,0,CC1=CC=CC=C1O,InChIKey=QWVGKYWNOKOFNN-UHFFFAOYSA-N,9.51,-1.6,NaN,NaN,NaN,NaN,NaN,NaN,NaN,NaN,NaN,NaN,NaN,NaN
Ortho-Hydroxyphenylacetic acid,HMDB00669,7.225,3,m,NA,0.2878,-1,OC(=O)CC1=CC=CC=C1O,InChIKey=CCVYRRGZDBSHFU-UHFFFAOYSA-N,3.2,-1.3,NaN,NaN,NaN,NaN,NaN,NaN,NaN,NaN,NaN,NaN,NaN,NaN
Tyramine,HMDB00306,7.227,2,d,8.52,0.8676,1,NCCC1=CC=C(O)C=C1,InChIKey=DZGWFCGJZKJUFP-UHFFFAOYSA-N,10.78,-6.3,0.004995,0.315666667,NaN,NaN,NaN,NaN,NaN,NaN,NaN,NaN,NaN,NaN
Tolnaftate,HMDB05005,7.235,1,m,NA,0.0061,0,CN(C(=S)OC1=CC2=CC=CC=C2C=C1)C1=CC=CC(C)=C1,InChIKey=FUSNMLFNXJSCDI-UHFFFAOYSA-N,1.87,10,NA,NA,NA,NA,NA,NA,NA,NA,NA,NA,NA,NA
3.4.5-Trimethoxycinnamic acid,HMDB02511,7.235,1,d,15.96,0.074,-1,COC1=CC(\C=C\C(O)=O)=CC(OC)=C1OC,InChIKey=YTFVRYKNXDADBI-SNAWJCMRSA-N,15.1,-3.9,NaN,NaN,NaN,NaN,NaN,NaN,NaN,NaN,NaN,NaN,NaN,NaN
5-Methoxytryptamine,HMDB04095,7.235,1,d,2.26,0.1603,1,COC1=CC2=C(NC=C2CCN)C=C1,InChIKey=JTEJPPKMYBDEMY-UHFFFAOYSA-N,1.86,-6.7,NaN,NaN,NaN,NaN,NaN,NaN,NaN,NaN,NaN,NaN,NaN,NaN
Melatonin,HMDB01389,7.235,1,s,NA,0.2006,0,COC1=CC2=C(NC=C2CCNC(C)=O)C=C1,InChIKey=DRLFMBDRBRZALE-UHFFFAOYSA-N,4.12,-7.2,NaN,NaN,NaN,NaN,NaN,NaN,NaN,NaN,NaN,NaN,NaN,NaN
trans-Ferulic acid,HMDB00954,7.238,1,d,1.82,0.1668,-1,COC1=C(O)C=CC(\C=C\C(O)=O)=C1,InChIKey=KSEBMYQBYZTDHS-HWKANZROSA-N,0.83,-1.6,0.039,0.5,NaN,NaN,NaN,NaN,NaN,NaN,NaN,NaN,NaN,NaN
Ibuprofen,HMDB01925,7.245,2,d,8.03,0.212,-1,CC(C)CC1=CC=C(C=C1)C(C)C(O)=O,InChIKey=HEFNNWSXXWATRW-UHFFFAOYSA-N,12.2,3.34,242,NaN,NaN,NaN,NaN,NaN,NaN,NaN,NaN,NaN,NaN,NaN
Tryptophanol,HMDB03447,7.245,1,t,NA,0.1187,0,OCCC1=CNC2=CC=CC=C12,InChIKey=MBBOMCVGYCRMEA-UHFFFAOYSA-N,14.58,-3,NA,NA,NA,NA,NA,NA,NA,NA,NA,NA,NA,NA
Indolelactic acid,HMDB00671,7.249,2,m,NA,0.9998,-1,OC(CC1=CNC2=C1C=CC=C2)C(O)=O,InChIKey=XGILAAMKEQUXLS-UHFFFAOYSA-N,7.6,5,2.8,0.46,NaN,NaN,NaN,NaN,NaN,NaN,NaN,NaN,NaN,NaN
Indoleacetic acid,HMDB00197,7.255,2,m,NA,0.3362,-1,OC(=O)CC1=CNC2=C1C=CC=C2,InChIKey=SEOVTRFCIGRIMH-UHFFFAOYSA-N,7.61,-2.2,0.983333333,5.6,NaN,1.6455,0.029,NaN,NaN,NaN,NaN,NaN,NaN,NaN
3-Indolepropionic acid,HMDB02302,7.255,12,t,7.32,0.5592,-1,OC(=O)CCC1=CNC2=CC=CC=C12,InChIKey=GOLXRNDWAUTYKT-UHFFFAOYSA-N,2.45,-2.9,NaN,NaN,NaN,NaN,NaN,NaN,NaN,NaN,NaN,NaN,NaN,NaN
5-Methoxysalicylic acid,HMDB01868,7.255,1,d,3.11,0.1576,-1,COC1=CC(C(O)=O)=C(O)C=C1,InChIKey=IZZIWIAOVZOBLF-UHFFFAOYSA-N,11.57,4.95,NaN,NaN,NaN,NaN,NaN,NaN,NaN,NaN,NaN,NaN,NaN,NaN
Indole,HMDB00738,7.255,1,dt,7.54 0.80,0.2512,0,N1C=CC2=C1C=CC=C2,InChIKey=SIKJAQJRHWYJAI-UHFFFAOYSA-N,19.78,12.39,NaN,NaN,NaN,NaN,NaN,NaN,NaN,NaN,NaN,NaN,NaN,NaN
Loratadine,HMDB05000,7.255,1,dd,NA,0.0353,0,CCOC(=O)N1CCC(CC1)=C1C2=C(CCC3=CC=CN=C13)C=C(Cl)C=C2,InChIKey=JCCNYMKQOSZNPW-UHFFFAOYSA-N,1.87,10,NaN,NaN,NaN,NaN,NaN,NaN,NaN,NaN,NaN,NaN,NaN,NaN
o-Tyrosine,HMDB06050,7.255,1,td,7.76 1.71,0.1412,0,NC(CC1=CC=CC=C1O)C(O)=O,InChIKey=WRFPVMFCRNYQNR-UHFFFAOYSA-N,1.08,-3.6,NaN,NaN,NaN,NaN,NaN,NaN,NaN,NaN,NaN,NaN,NaN,NaN
3-Methylindole,HMDB00466,7.258,1,td,7.58 0.96,0.0769,0,CC1=CNC2=C1C=CC=C2,InChIKey=ZFRKQXVRDFCRJG-UHFFFAOYSA-N,2.76,-0.88,NaN,NaN,NaN,NaN,NaN,NaN,NaN,NaN,NaN,NaN,NaN,NaN
3-Methylphenylacetic acid,HMDB02222,7.265,1,t,7.46,0.1466,-1,CC1=CC(CC(O)=O)=CC=C1,InChIKey=GJMPSRSMBJLKKB-UHFFFAOYSA-N,11.92,0.019,NA,NA,NA,NA,NA,NA,NA,NA,NA,NA,NA,NA
Salicin,HMDB03546,7.265,1,m,NA,0.0642,0,OC[C@H]1O[C@@H](OC2=C(CO)C=CC=C2)[C@H](O)[C@@H](O)[C@@H]1O,InChIKey=NGFMICBWJRZIBI-UJPOAAIJSA-N,14.58,-3,NA,NA,NA,NA,NA,NA,NA,NA,NA,NA,NA,NA
(R)-2-Benzylsuccinate,HMDB12127,7.275,3,m,NA,1,-2,OC(=O)C[C@H](CC1=CC=CC=C1)C(O)=O,InChIKey=GTOFKXZQQDSVFH-VIFPVBQESA-N,1.86,-4.8,NA,NA,NA,NA,NA,NA,NA,NA,NA,NA,NA,NA
3-Phenylbutyric acid,HMDB01955,7.275,42,m,NA,0.5778,-1,CC(CC(O)=O)C1=CC=CC=C1,InChIKey=ZZEWMYILWXCRHZ-UHFFFAOYSA-N,14.22,10.21,NA,NA,NA,NA,NA,NA,NA,NA,NA,NA,NA,NA
Amlodipine,HMDB05018,7.275,1,td,NA,0.0954,1,CCOC(=O)C1=C(COCCN)NC(C)=C(C1C1=CC=CC=C1Cl)C(=O)OC,InChIKey=HTIQEAQVCYTUBX-UHFFFAOYSA-N,1.87,10,NA,NA,NA,NA,NA,NA,NA,NA,NA,NA,NA,NA
2.5-Furandicarboxylic acid,HMDB04812,7.275,2,s,NA,0.7762,-2,OC(=O)C1=CC=C(O1)C(O)=O,InChIKey=CHTHALBTIRVDBM-UHFFFAOYSA-N,1.86,-4.8,NaN,NaN,NaN,NaN,NaN,NaN,NaN,NaN,NaN,NaN,NaN,NaN
3-Hydroxyphenylacetic acid,HMDB00440,7.275,1,t,7.75,0.3014,-1,OC(=O)CC1=CC=CC(O)=C1,InChIKey=FVMDYYGIDFPZAX-UHFFFAOYSA-N,13.62,8.23,NaN,11.85,NaN,NaN,NaN,NaN,NaN,NaN,NaN,NaN,NaN,NaN
5-Hydroxy-L-tryptophan,HMDB00472,7.285,15,s,NA,1,0,NC(CC1=CNC2=C1C=C(O)C=C2)C(O)=O,InChIKey=LDCYZAJDBXYCGN-UHFFFAOYSA-N,4.65,9.53,0.018,0.0078,NaN,NaN,NaN,NaN,NaN,NaN,NaN,NaN,NaN,NaN
Indoxyl,HMDB04094,7.285,1,m,NA,0.021,0,OC1=CNC2=CC=CC=C12,InChIKey=PCKPVGOLPKLUHR-UHFFFAOYSA-N,1.86,-6.7,NA,NA,NA,NA,NA,NA,NA,NA,NA,NA,NA,NA
Ondansetron,HMDB05035,7.285,1,m,NA,0.0189,1,CN1C2=C(C3=CC=CC=C13)C(=O)C(CN1C=CN=C1C)CC2,InChIKey=FELGMEQIXOGIFQ-UHFFFAOYSA-N,1.87,10,NA,NA,NA,NA,NA,NA,NA,NA,NA,NA,NA,NA
Brompheniramine,HMDB01941,7.285,9,d,8.46,0.1642,1,CN(C)CCC(C1=CC=C(Br)C=C1)C1=CC=CC=N1,InChIKey=ZDIGNSYAACHWNL-UHFFFAOYSA-N,2.58,9.64,NaN,NaN,NaN,NaN,NaN,NaN,NaN,NaN,NaN,NaN,NaN,NaN
Loperamide,HMDB04999,7.285,2,m,NA,0.4654,1,CN(C)C(=O)C(CCN1CCC(O)(CC1)C1=CC=C(Cl)C=C1)(C1=CC=CC=C1)C1=CC=CC=C1,InChIKey=RDOIQAHITMMDAJ-UHFFFAOYSA-N,1.87,10,NaN,NaN,NaN,NaN,NaN,NaN,NaN,NaN,NaN,NaN,NaN,NaN
L-Tryptophan,HMDB00929,7.289,11,m,NA,NA,0,N[C@@H](CC1=CNC2=CC=CC=C12)C(O)=O,InChIKey=QIVBCDIJIAJPQS-VIFPVBQESA-N,1.86,4.79,58.96666667,4.8066,NaN,2.65,7.335,NaN,NaN,NaN,NaN,NaN,NaN,NaN
Urocanic acid,HMDB00301,7.295,1,d,16.12,0.6748,-1,OC(=O)\C=C\C1=CNC=N1,InChIKey=LOIYMIARKYCTBW-OWOJBTEDSA-N,11.61,-2.8,0.43,NaN,NaN,NaN,NaN,NaN,NaN,NaN,NaN,NaN,NaN,NaN
5-Methoxytryptophan,HMDB02339,7.295,1,d,2.48,0.1267,0,COC1=CC2=C(NC=C2C[C@H](N)C(O)=O)C=C1,InChIKey=KVNPSKDDJARYKK-JTQLQIEISA-N,11.59,10,NA,NA,NA,NA,NA,NA,NA,NA,NA,NA,NA,NA
3-Aminosalicylic acid,HMDB01972,7.295,31,m,NA,0.4951,-1,NC1=CC=CC(C(O)=O)=C1O,InChIKey=IQGMRVWUTCYCST-UHFFFAOYSA-N,18.2,12.44,NaN,NaN,NaN,NaN,NaN,NaN,NaN,NaN,NaN,NaN,NaN,NaN
Aspartame,HMDB01894,7.295,2,m,NA,0.2029,0,COC(=O)[C@H](CC1=CC=CC=C1)NC(=O)[C@@H](N)CC(O)=O,InChIKey=IAOZJIPTCAWIRG-QWRGUYRKSA-N,13.45,-2.7,NaN,NaN,NaN,NaN,NaN,NaN,NaN,NaN,NaN,NaN,NaN,NaN
Atenolol,HMDB01924,7.295,2,m,NA,0.4618,1,CC(C)NCC(O)COC1=CC=C(CC(N)=O)C=C1,InChIKey=METKIMKYRPQLGS-UHFFFAOYSA-N,15.74,-0.94,NaN,NaN,NaN,NaN,NaN,NaN,NaN,NaN,NaN,NaN,NaN,NaN
Benzyl alcohol,HMDB03119,7.295,1,s,NA,0.123,0,OCC1=CC=CC=C1,InChIKey=WVDDGKGOMKODPV-UHFFFAOYSA-N,14.58,-3,NaN,NaN,NaN,NaN,NaN,NaN,NaN,NaN,NaN,NaN,NaN,NaN
Imidazole,HMDB01525,7.295,2,s,NA,1,0,N1C=CN=C1,InChIKey=RAXXELZNTBOGNW-UHFFFAOYSA-N,4.95,-0.3,NaN,NaN,NaN,NaN,NaN,NaN,NaN,NaN,NaN,NaN,NaN,NaN
Isoferulic acid,HMDB00955,7.295,1,d,15.97,0.2093,-1,COC1=C(O)C=C(\C=C\C(O)=O)C=C1,InChIKey=QURCVMIEKCOAJU-HWKANZROSA-N,3.24,-6.3,NaN,NaN,NaN,NaN,NaN,NaN,NaN,NaN,NaN,NaN,NaN,NaN
Phenylpropionylglycine,HMDB00860,7.295,25,m,NA,1,-1,OC(=O)CNC(=O)CCC1=CC=CC=C1,InChIKey=YEIQSAXUPKPPBN-UHFFFAOYSA-N,12.42,5.3,NaN,NaN,NaN,NaN,NaN,NaN,NaN,NaN,NaN,NaN,NaN,NaN
Pyridine,HMDB00926,7.295,2,m,NA,0.9166,0,C1=CC=NC=C1,InChIKey=JUJWROOIHBZHMG-UHFFFAOYSA-N,0.82,-3,NaN,NaN,NaN,NaN,NaN,NaN,NaN,NaN,NaN,NaN,NaN,NaN
Serotonin,HMDB00259,7.295,1,s,NA,0.4735,1,NCCC1=CNC2=CC=C(O)C=C12,InChIKey=QZAYGJVTTNCVMB-UHFFFAOYSA-N,4.51,-0.4,NaN,0.065,NaN,NaN,0.00345,NaN,NaN,NaN,NaN,NaN,NaN,NaN
Indoxyl sulfate,HMDB00682,7.296,1,dd,NA,0.2597,-1,OS(=O)(=O)OC1=CNC2=CC=CC=C12,InChIKey=BXFFHSIDQOFMLE-UHFFFAOYSA-N,14.58,-3,2.49,NA,NaN,NaN,NaN,NaN,NaN,NaN,NaN,NaN,NaN,NaN
2-Aminobenzoic acid,HMDB01123,7.305,1,ddd,8.28 7.01 1.65,0.5503,-1,NC1=CC=CC=C1C(O)=O,InChIKey=RWZYAGGXGHYGMB-UHFFFAOYSA-N,0.5,9.53,0.0155,0.31,NaN,NaN,0.001,NaN,NaN,NaN,NaN,NaN,NaN,NaN
Benzenebutanoic acid,HMDB00543,7.305,2,t,7.41,0.7285,-1,OC(=O)CCCC1=CC=CC=C1,InChIKey=OBKXEAXTFZPCHS-UHFFFAOYSA-N,3.47,8.99,NA,NA,NA,NA,NA,NA,NA,NA,NA,NA,NA,NA
Phenylacetic acid,HMDB00209,7.305,3,m,NA,0.3769,-1,OC(=O)CC1=CC=CC=C1,InChIKey=WLJVXDMOQOGPHL-UHFFFAOYSA-N,11.3,-0.16,NA,2.12,NaN,47.04,NaN,NaN,NaN,NaN,NaN,NaN,NaN,NaN
3-Hydroxymandelic acid,HMDB00750,7.305,1,t,7.87,0.5524,-1,OC(C(O)=O)C1=CC(O)=CC=C1,InChIKey=OLSDAJRAVOVKLG-UHFFFAOYSA-N,3.37,5.02,NaN,NaN,NaN,NaN,NaN,NaN,NaN,NaN,NaN,NaN,NaN,NaN
Caffeic acid,HMDB01964,7.305,18,d,15.97,0.7662,-1,OC(=O)\C=C/C1=CC=C(O)C(O)=C1,InChIKey=QAIPRVGONGVQAS-RQOWECAXSA-N,19.34,-1.6,NaN,NaN,NaN,NaN,NaN,NaN,NaN,NaN,NaN,NaN,NaN,NaN
Coumarin,HMDB01218,7.305,1,td,NA,0.3751,0,O=C1OC2=CC=CC=C2C=C1,InChIKey=ZYGHJZDHTFUPRJ-UHFFFAOYSA-N,18.92,-7.1,NaN,NaN,NaN,NaN,NaN,NaN,NaN,NaN,NaN,NaN,NaN,NaN
Gentisic acid,HMDB00152,7.305,1,d,3.14,0.994,-1,OC(=O)C1=CC(O)=CC=C1O,InChIKey=WXTMDXOMEHJXQO-UHFFFAOYSA-N,1.54,-0.88,NaN,1.35,NaN,NaN,NaN,NaN,NaN,NaN,NaN,NaN,NaN,NaN
Tryptamine,HMDB00303,7.305,1,dd,7.30 0.61,0.344,1,NCCC1=CNC2=CC=CC=C12,InChIKey=APJYDQYYACXCRM-UHFFFAOYSA-N,4.39,-0.16,NaN,0.026,NaN,NaN,NaN,NaN,NaN,NaN,NaN,NaN,NaN,NaN
Genistein,HMDB03217,7.315,2,d,8.31,0.3613,-1,OC1=CC=C(C=C1)C1=COC2=CC(O)=CC(O)=C2C1=O,InChIKey=TZBJGXHYKVUXJN-UHFFFAOYSA-N,14.58,-3,0.01261,0.23,NaN,NaN,NaN,NaN,NaN,NaN,NaN,NaN,NaN,NaN
Phenylpyruvic acid,HMDB00205,7.315,2,m,NA,0.0881,-1,OC(=O)C(=O)CC1=CC=CC=C1,InChIKey=BTNMPGBKDVTSJY-UHFFFAOYSA-N,2.98,-3.8,0.5,NaN,NaN,NaN,NaN,NaN,NaN,NaN,NaN,NaN,NaN,NaN
2-Phenylbutyric acid,HMDB00329,7.315,8,m,NA,0.152,-1,CCC(C(O)=O)C1=CC=CC=C1,InChIKey=OFJWFSNDPCAWDK-UHFFFAOYSA-N,3.35,-0.18,NA,NA,NA,NA,NA,NA,NA,NA,NA,NA,NA,NA
3-Phenoxypropionic acid,HMDB02229,7.315,1,m,NA,0.6796,-1,OC(=O)CCOC1=CC=CC=C1,InChIKey=BUSOTUQRURCMCM-UHFFFAOYSA-N,2.84,6.63,NA,NA,NA,NA,NA,NA,NA,NA,NA,NA,NA,NA