Metabolite,HMDB Name,Shift (ppm),Hs,Type,J (Hz),Height,Physiological Charge,SMILES,InChlKey,pKa (Strongest Acidic),pKa (Strongest Basic),Blood,Urine,Feces,Saliva,Cerebrospinal Fluid (CSF),Amniotic Fluid,Aqueous Humour,Ascites Fluid,Breast Milk,Lymph,Sweat,Tears
Galacturonic acid,HMDB02545,3.715,11,dd,9.90 3.52,0.4684,-1,O[C@@H](C=O)[C@@H](O)[C@@H](O)[C@H](O)C(O)=O,InChIKey=IAJILQKETJEXLJ-RSJOWCBRSA-N,14.58,-3,NaN,NaN,NaN,NaN,NaN,NaN,NaN,NaN,NaN,NaN,NaN,NaN
2-Methoxyestradiol,HMDB00405,3.725,3,s,NA,1,0,[H][C@@]12CC[C@H](O)[C@@]1(C)CC[C@]1([H])C3=C(CC[C@@]21[H])C=C(O)C(OC)=C3,InChIKey=CQOQDQWUFQDJMK-SSTWWWIQSA-N,4.02,-1.4,0.01,NaN,NaN,NaN,NaN,NaN,NaN,NaN,NaN,NaN,NaN,NaN
Sphinganine,HMDB00269,3.725,1,dd,NA,0.0213,1,CCCCCCCCCCCCCCC[C@@H](O)[C@@H](N)CO,InChIKey=OTKJDMGTUTTYMP-ZWKOTPCHSA-N,18.3,-2.4,0.011,0.00023,NaN,NaN,NaN,NaN,NaN,NaN,NaN,NaN,NaN,NaN
Dimethylglycine,HMDB00092,3.725,2,s,NA,0.2757,0,CN(C)CC(O)=O,InChIKey=FFDGPVCHZBVARC-UHFFFAOYSA-N,10.33,-3,2.25,4.8,NaN,4.9,NaN,NaN,NaN,NaN,NaN,NaN,NaN,NaN
2.3-Butanediol,HMDB03156,3.725,2,m,NA,0.1758,0,CC(O)C(C)O,InChIKey=OWBTYPJTUOEWEK-UHFFFAOYSA-N,14.58,-3,7.9,NaN,NaN,NaN,NaN,NaN,NaN,NaN,NaN,NaN,NaN,NaN
Glucose 6-phosphate,HMDB01401,3.725,1,t,9.54,0.4413,-2,OC1O[C@H](COP(O)(O)=O)[C@@H](O)[C@H](O)[C@H]1O,InChIKey=NBSCHQHZLSJFNQ-GASJEMHNSA-N,1.86,4.95,29.1,NaN,NaN,NaN,NaN,NaN,NaN,NaN,NaN,NaN,NaN,NaN
Glucosamine 6-sulfate,HMDB00592,3.725,1,ddd,5.20 2.12,0.0548,0,N[C@H]1[C@H](O)O[C@H](COS(O)(=O)=O)[C@@H](O)[C@@H]1O,InChIKey=MTDHILKWIRSIHB-QZABAPFNSA-N,3.2,4.54,NA,NA,NA,NA,NA,NA,NA,NA,NA,NA,NA,NA
2-Methoxyestrone,HMDB00010,3.725,3,s,NA,0.7925,0,[H][C@@]12CCC(=O)[C@@]1(C)CC[C@]1([H])C3=C(CC[C@@]21[H])C=C(O)C(OC)=C3,InChIKey=WHEUWNKSCXYKBU-QPWUGHHJSA-N,1.87,10,NaN,0.005,NaN,NaN,NaN,NaN,NaN,NaN,NaN,NaN,NaN,NaN
3-Methylhistamine,HMDB01861,3.725,3,s,NA,1,2,CN1C=NC=C1CCN,InChIKey=CPAGZVLINCPJEH-UHFFFAOYSA-N,3.24,4.95,NaN,NaN,NaN,NaN,NaN,NaN,NaN,NaN,NaN,NaN,NaN,NaN
DL-2-Aminooctanoic acid,HMDB00991,3.725,1,dd,NA,0.0292,0,CCCCCCC(N)C(O)=O,InChIKey=AKVBCGQVQXPRLD-UHFFFAOYSA-N,3.05,9.75,NaN,NaN,NaN,NaN,NaN,NaN,NaN,NaN,NaN,NaN,NaN,NaN
L-Alpha-aminobutyric acid,HMDB00452,3.733,1,dd,NA,0.2964,0,CC[C@H](N)C(O)=O,InChIKey=QWCKQJZIFLGMSD-VKHMYHEASA-N,1.87,10,22,0.77875,NaN,NaN,3.33,NaN,NaN,NaN,NaN,NaN,NaN,NaN
D-Xylitol,HMDB02917,3.735,2,m,NA,0.6522,0,OC[C@H](O)C(O)[C@H](O)CO,InChIKey=HEBKCHPVOIAQTA-NGQZWQHPSA-N,18.74,-3.3,0.677,3.5,NaN,NaN,NaN,NaN,NaN,NaN,NaN,NaN,NaN,NaN
Pseudouridine,HMDB00767,3.735,1,dd,12.49 4.80,0.2227,0,OC[C@H]1O[C@H]([C@H](O)[C@@H]1O)C1=CNC(=O)NC1=O,InChIKey=PTJWIQPHWPFNBW-GBNDHIKLSA-N,1.08,-3.6,3.18,17.15566667,NaN,NaN,NaN,NaN,NaN,NaN,NaN,NaN,NaN,NaN
D-Galactose,HMDB00143,3.735,3,m,NA,1,0,OC[C@H]1O[C@H](O)[C@H](O)[C@@H](O)[C@H]1O,InChIKey=WQZGKKKJIJFFOK-PHYPRBDBSA-N,1.87,10,88.3,4.4,NaN,83.46,166,NaN,NaN,NaN,NaN,NaN,NaN,NaN
Ibuprofen,HMDB01925,3.735,1,q,7.17,0.0724,-1,CC(C)CC1=CC=C(C=C1)C(C)C(O)=O,InChIKey=HEFNNWSXXWATRW-UHFFFAOYSA-N,12.2,3.34,242,NaN,NaN,NaN,NaN,NaN,NaN,NaN,NaN,NaN,NaN,NaN
Biocytin,HMDB03134,3.735,5,t,6.15,0.5889,0,[H][C@]12CS[C@@H](CCCCC(=O)NCCCC[C@H](N)C(O)=O)[C@@]1([H])NC(=O)N2,InChIKey=BAQMYDQNMFBZNA-MNXVOIDGSA-N,14.58,-3,NA,NA,NA,NA,NA,NA,NA,NA,NA,NA,NA,NA
Methylacetoacetic acid,HMDB00310,3.735,2,s,NA,0.291,0,COC(=O)CC(C)=O,InChIKey=WRQNANDWMGAFTP-UHFFFAOYSA-N,4.14,-0.16,NA,NA,NA,NA,NA,NA,NA,NA,NA,NA,NA,NA
5-Methoxysalicylic acid,HMDB01868,3.735,3,s,NA,1,-1,COC1=CC(C(O)=O)=C(O)C=C1,InChIKey=IZZIWIAOVZOBLF-UHFFFAOYSA-N,11.57,4.95,NaN,NaN,NaN,NaN,NaN,NaN,NaN,NaN,NaN,NaN,NaN,NaN
Dehydroascorbic acid,HMDB01264,3.735,3,m,NA,1,-1,[H][C@@]1(OC(=O)C(=O)C1=O)[C@H](O)CO,InChIKey=SBJKKFFYIZUCET-DUZGATOHSA-N,11.63,9.37,NaN,NaN,NaN,NaN,NaN,NaN,NaN,NaN,NaN,NaN,NaN,NaN
Gulonic acid,HMDB03290,3.735,2,m,NA,0.6244,-1,OC[C@@H](O)[C@H](O)[C@@H](O)[C@@H](O)C(O)=O,InChIKey=RGHNJXZEOKUKBD-KKQCNMDGSA-N,14.58,-3,NaN,NaN,NaN,NaN,NaN,NaN,NaN,NaN,NaN,NaN,NaN,NaN
Sorbitol,HMDB00247,3.736,1,d,2.88,0.2652,0,OC[C@H](O)[C@@H](O)[C@H](O)[C@H](O)CO,InChIKey=FBPFZTCFMRRESA-JGWLITMVSA-N,4.48,-0.54,7.045,3.5,NaN,NA,16.3,NaN,NaN,NaN,NaN,NaN,NaN,NaN
L-Leucine,HMDB00687,3.737,8,m,NA,NA,0,CC(C)C[C@H](N)C(O)=O,InChIKey=ROHFNLRQFUQHCH-YFKPBYRVSA-N,4.22,-0.95,157.5666667,3.917,NaN,53.5,13.05,NaN,NaN,NaN,NaN,NaN,NaN,NaN
L-Iditol,HMDB11632,3.742,4,m,NA,1,0,OC[C@H](O)[C@@H](O)[C@H](O)[C@@H](O)CO,InChIKey=FBPFZTCFMRRESA-UNTFVMJOSA-N,1.86,-3,NaN,NaN,NaN,NaN,NaN,NaN,NaN,NaN,NaN,NaN,NaN,NaN
D-Glucose,HMDB00122,3.743,19,m,NA,NA,0,OC[C@H]1OC(O)[C@H](O)[C@@H](O)[C@@H]1O,InChIKey=WQZGKKKJIJFFOK-GASJEMHNSA-N,1.89,-6.6,4935.2875,17.15333333,NaN,NA,2340,NaN,NaN,NaN,NaN,NaN,NaN,NaN
Mannitol,HMDB00765,3.744,25,m,NA,0.3103,0,OC[C@@H](O)[C@@H](O)[C@H](O)[C@H](O)CO,InChIKey=FBPFZTCFMRRESA-KVTDHHQDSA-N,14.75,-0.16,34,10.26,NaN,NaN,4.875,NaN,NaN,NaN,NaN,NaN,NaN,NaN
Riboflavin,HMDB00244,3.745,1,dd,11.92 6.70,0.128,-1,CC1=C(C)C=C2N(C[C@H](O)[C@H](O)[C@H](O)CO)C3=NC(=O)NC(=O)C3=NC2=C1,InChIKey=AUNGANRZJHBGPY-SCRDCRAPSA-N,4.17,-3,0.015,0.18,NaN,0.058,NaN,NaN,NaN,NaN,NaN,NaN,NaN,NaN
Methylimidazoleacetic acid,HMDB02820,3.745,3,s,NA,1,-1,CN1C=NC(CC(O)=O)=C1,InChIKey=ZHCKPJGJQOPTLB-UHFFFAOYSA-N,11.41,-3.7,0.08457,1.6575,NaN,NaN,NaN,NaN,NaN,NaN,NaN,NaN,NaN,NaN
Muramic acid,HMDB03254,3.745,3,m,NA,0.212,0,C[C@@H](O[C@H]1[C@@H](N)[C@H](O)O[C@H](CO)[C@H]1O)C(O)=O,InChIKey=MSFSPUZXLOGKHJ-LEISLEKSSA-N,14.58,-3,NA,NA,NA,NA,NA,NA,NA,NA,NA,NA,NA,NA
Alpha-D-Glucose,HMDB03345,3.745,3,m,NA,0.5299,0,OC[C@H]1O[C@H](O)[C@H](O)[C@@H](O)[C@@H]1O,InChIKey=WQZGKKKJIJFFOK-DVKNGEFBSA-N,14.58,-3,NaN,NaN,NaN,NaN,NaN,NaN,NaN,NaN,NaN,NaN,NaN,NaN
Alpha-Lactose,HMDB00186,3.745,1,t,3.64,0.2972,0,OC[C@H]1O[C@@H](O[C@H]2[C@H](O)[C@@H](O)[C@@H](O)O[C@@H]2CO)[C@H](O)[C@@H](O)[C@H]1O,InChIKey=GUBGYTABKSRVRQ-XLOQQCSPSA-N,1.87,10,NaN,1.45,NaN,NaN,NaN,NaN,NaN,NaN,NaN,NaN,NaN,NaN
Aspartame,HMDB01894,3.745,3,s,NA,1,0,COC(=O)[C@H](CC1=CC=CC=C1)NC(=O)[C@@H](N)CC(O)=O,InChIKey=IAOZJIPTCAWIRG-QWRGUYRKSA-N,13.45,-2.7,NaN,NaN,NaN,NaN,NaN,NaN,NaN,NaN,NaN,NaN,NaN,NaN
D-Tagatose,HMDB03418,3.745,2,m,NA,1,0,OC[C@@H](O)[C@H](O)[C@H](O)C(=O)CO,InChIKey=BJHIKXHVCXFQLS-PQLUHFTBSA-N,14.58,-3,NaN,NaN,NaN,NaN,NaN,NaN,NaN,NaN,NaN,NaN,NaN,NaN
Isomaltose,HMDB02923,3.745,8,m,NA,0.8681,0,OC[C@H]1O[C@H](OC[C@H]2OC(O)[C@H](O)[C@@H](O)[C@@H]2O)[C@H](O)[C@@H](O)[C@@H]1O,InChIKey=DLRVVLDZNNYCBX-RTPHMHGBSA-N,9.91,-1.4,NaN,NaN,NaN,NaN,NaN,NaN,NaN,NaN,NaN,NaN,NaN,NaN
Melibiose,HMDB00048,3.745,23,m,NA,1,0,OC[C@H]1O[C@H](OC[C@H]2OC(O)[C@H](O)[C@@H](O)[C@@H]2O)[C@H](O)[C@@H](O)[C@H]1O,InChIKey=DLRVVLDZNNYCBX-ABXHMFFYSA-N,2.06,-0.1,NaN,NaN,NaN,NaN,NaN,NaN,NaN,NaN,NaN,NaN,NaN,NaN
Uridine diphosphategalactose,HMDB00302,3.745,2,m,NA,0.3689,-2,OC[C@H]1O[C@H](O[P@@](O)(=O)O[P@@](O)(=O)OC[C@H]2O[C@H]([C@H](O)[C@@H]2O)N2C=CC(=O)NC2=O)[C@H](O)[C@@H](O)[C@H]1O,InChIKey=HSCJRCZFDFQWRP-ABVWGUQPSA-N,4.48,-2.8,NaN,NaN,NaN,NaN,NaN,NaN,NaN,NaN,NaN,NaN,NaN,NaN
D-Glucuronic acid,HMDB00127,3.748,2,m,NA,0.0712,-1,O[C@H]1O[C@@H]([C@@H](O)[C@H](O)[C@H]1O)C(O)=O,InChIKey=AEMOLEFTQBMNLQ-WAXACMCWSA-N,3.07,-3,NaN,36.07,NaN,NaN,NaN,NaN,NaN,NaN,NaN,NaN,NaN,NaN
D-Mannose,HMDB00169,3.754,14,m,NA,NA,0,OC[C@H]1OC(O)[C@@H](O)[C@@H](O)[C@@H]1O,InChIKey=WQZGKKKJIJFFOK-QTVWNMPRSA-N,3.66,9.48,39,1.25,NaN,NaN,44,NaN,NaN,NaN,NaN,NaN,NaN,NaN
L-Norleucine,HMDB01645,3.754,12,dd,6.92 5.38,0.0938,0,CCCC[C@H](N)C(O)=O,InChIKey=LRQKBLKVPFOOQJ-YFKPBYRVSA-N,-1.2,-3.2,NaN,NaN,NaN,NaN,NaN,NaN,NaN,NaN,NaN,NaN,NaN,NaN
Dihydrobiopterin,HMDB00038,3.755,1,m,NA,0.1875,0,CC(O)C(O)C1=NC2=C(NC1)N=C(N)NC2=O,InChIKey=FEMXZDUTFRTWPE-UHFFFAOYSA-N,11.25,10.31,0.006,NaN,NaN,NaN,4.00E-04,NaN,NaN,NaN,NaN,NaN,NaN,NaN
Homo-L-arginine,HMDB00670,3.755,1,t,6.04,0.5172,1,N[C@@H](CCCCNC(N)=N)C(O)=O,InChIKey=QUOGESRFPZDMMT-YFKPBYRVSA-N,1.14,-3.7,3.56,0.98,NaN,NaN,NaN,NaN,NaN,NaN,NaN,NaN,NaN,NaN
Citrulline,HMDB00904,3.755,1,dd,6.42 5.84,0.9112,0,N[C@@H](CCCNC(N)=O)C(O)=O,InChIKey=RHGKLRLOHDJJDR-BYPYZUCNSA-N,1.5,-7,38,0.3775,NaN,51.82,3.31,NaN,NaN,NaN,NaN,NaN,NaN,NaN
L-Lysine,HMDB00182,3.755,12,t,6.09,0.7848,1,NCCCC[C@H](N)C(O)=O,InChIKey=KDXKERNSBIXSRK-YFKPBYRVSA-N,0.3,-3.7,266.8666667,7.325,NaN,NA,22.8,NaN,NaN,NaN,NaN,NaN,NaN,NaN
Capryloylglycine,HMDB00832,3.755,1,s,NA,0.8358,-1,CCCCCCCC(=O)NCC(O)=O,InChIKey=SAVLIIGUQOSOEP-UHFFFAOYSA-N,3.15,4.95,NA,NA,NA,NA,NA,NA,NA,NA,NA,NA,NA,NA
Glutarylglycine,HMDB00590,3.755,2,s,NA,1,-2,OC(=O)CCCC(=O)NCC(O)=O,InChIKey=NBLKTRLPZFCMJG-UHFFFAOYSA-N,3.72,-0.38,NA,NA,NA,NA,NA,NA,NA,NA,NA,NA,NA,NA
Hydroxycobalamin,HMDB02308,3.755,1,dd,NA,0.0051,2,[Co++].O.OC[C@H]1O[C@@]([H])([C@H](O)[C@]1([H])OP(=O)([O-])O[C@H](C)CNC(=O)CC[C@]1(C)[C@@H](CC(=O)N)[C@@]2([H])[N-]\C1=C(C)/C1=N/C(=C\C3=N\C(=C(C)/C4=N[C@]2(C)[C@@](C)(CC(=O)N)[C@@H]4CCC(=O)N)\[C@@](C)(CC(=O)N)[C@@H]3CCC(=O)N)/C(C)(C)[C@@H]1CCC(=O)N)N1C=NC2=C1C=C(C)C(C)=C2,InChIKey=DQOCFCZRZOAIBN-WZHZPDAFSA-L,2.45,-1.9,NA,NA,NA,NA,NA,NA,NA,NA,NA,NA,NA,NA
Maltitol,HMDB02928,3.755,1,t,9.55,0.8195,0,[H][C@@](O[C@H]1O[C@H](CO)[C@@H](O)[C@H](O)[C@H]1O)([C@H](O)CO)[C@H](O)[C@@H](O)CO,InChIKey=VQHSOMBJVWLPSR-WUJBLJFYSA-N,1.22,-0.88,NA,NA,NA,NA,NA,NA,NA,NA,NA,NA,NA,NA
Methylacetoacetic acid,HMDB00310,3.755,3,s,NA,1,0,COC(=O)CC(C)=O,InChIKey=WRQNANDWMGAFTP-UHFFFAOYSA-N,4.14,-0.16,NA,NA,NA,NA,NA,NA,NA,NA,NA,NA,NA,NA
N-Acetyllactosamine,HMDB01542,3.755,4,m,NA,0.1545,0,CC(=O)N[C@H]1[C@H](O)O[C@H](CO)[C@@H](O[C@@H]2O[C@H](CO)[C@H](O)[C@H](O)[C@H]2O)[C@@H]1O,InChIKey=KFEUJDWYNGMDBV-LODBTCKLSA-N,4.82,-0.54,NA,NA,NA,NA,NA,NA,NA,NA,NA,NA,NA,NA
Diaminopimelic acid,HMDB01370,3.755,2,m,NA,0.3232,0,N[C@@H](CCC[C@H](N)C(O)=O)C(O)=O,InChIKey=GMKMEZVLHJARHF-WHFBIAKZSA-N,2.01,4.95,NaN,NaN,NaN,NaN,NaN,NaN,NaN,NaN,NaN,NaN,NaN,NaN
N6-Acetyl-L-lysine,HMDB00206,3.755,1,t,6.1,0.1616,0,CC(=O)NCCCC[C@H](N)C(O)=O,InChIKey=DTERQYGMUDWYAZ-ZETCQYMHSA-N,9.77,-1.4,NaN,NaN,NaN,NaN,NaN,NaN,NaN,NaN,NaN,NaN,NaN,NaN
N-Acetylgalactosamine 4-sulphate,HMDB00781,3.755,2,dd,NA,0.0919,-1,CC(=O)N[C@H]1[C@H](O)O[C@H](CO)[C@H](OS(O)(=O)=O)[C@@H]1O,InChIKey=WHCJUIFHMJFEFZ-UIAUGNHASA-N,4.09,9.31,NaN,NaN,NaN,NaN,NaN,NaN,NaN,NaN,NaN,NaN,NaN,NaN
Shikimic acid,HMDB03070,3.755,2,dd,8.65 4.30,0.818,-1,O[C@@H]1CC(=C[C@@H](O)[C@H]1O)C(O)=O,InChIKey=JXOHGGNKMLTUBP-HSUXUTPPSA-N,1.86,-0.032,NaN,NaN,NaN,NaN,NaN,NaN,NaN,NaN,NaN,NaN,NaN,NaN
Suberylglycine,HMDB00953,3.755,2,d,5.81,0.9034,-2,OC(=O)CCCCCCC(=O)NCC(O)=O,InChIKey=HXATVKDSYDWTCX-UHFFFAOYSA-N,3.23,4.58,NaN,NaN,NaN,NaN,NaN,NaN,NaN,NaN,NaN,NaN,NaN,NaN
Tetrahydrofuran,HMDB00246,3.755,56,t,6.59,1,0,C1CCOC1,InChIKey=WYURNTSHIVDZCO-UHFFFAOYSA-N,4.15,-2.6,NaN,NaN,NaN,NaN,NaN,NaN,NaN,NaN,NaN,NaN,NaN,NaN
trans-Aconitic acid,HMDB00958,3.755,4,s,NA,1,-3,OC(=O)C\C(=C/C(O)=O)C(O)=O,InChIKey=GTZCVFVGUGFEME-HNQUOIGGSA-N,1.48,5.01,NaN,NaN,NaN,NaN,NaN,NaN,NaN,NaN,NaN,NaN,NaN,NaN
Phenylacetylglycine,HMDB00821,3.759,2,d,5.81,0.5288,-1,OC(=O)CNC(=O)CC1=CC=CC=C1,InChIKey=UTYVDVLMYQPLQB-UHFFFAOYSA-N,1.79,-1.2,NaN,65,NaN,19.55,NaN,NaN,NaN,NaN,NaN,NaN,NaN,NaN
Levoglucosan,HMDB00640,3.761,2,dd,7.70 5.83,0.6553,0,[H][C@@]12OC[C@@H](O1)[C@@H](O)[C@H](O)[C@H]2O,InChIKey=TWNIBLMWSKIRAT-VFUOTHLCSA-N,4.15,-7,NaN,NaN,NaN,NaN,NaN,NaN,NaN,NaN,NaN,NaN,NaN,NaN
Isovalerylglycine,HMDB00678,3.762,2,d,5.84,0.337,-1,CC(C)CC(=O)NCC(O)=O,InChIKey=ZRQXMKMBBMNNQC-UHFFFAOYSA-N,2.84,4.58,NaN,NaN,NaN,NaN,NaN,NaN,NaN,NaN,NaN,NaN,NaN,NaN
L-Glutamic acid,HMDB00148,3.763,18,dd,7.186 4.724,NA,-1,N[C@@H](CCC(O)=O)C(O)=O,InChIKey=WHUUTDBJXJRKMK-VKHMYHEASA-N,4.95,-5.5,97.4,NA,NaN,NA,10.715,NaN,NaN,NaN,NaN,NaN,NaN,NaN
1-Methylinosine,HMDB02721,3.765,1,dd,12.32 3.30,0.0931,0,CN1C=NC2=C(N=CN2[C@@H]2O[C@H](CO)[C@@H](O)[C@H]2O)C1=O,InChIKey=WJNGQIYEQLPJMN-IOSLPCCCSA-N,18.21,9.04,0.06345,1.13,NaN,NaN,NaN,NaN,NaN,NaN,NaN,NaN,NaN,NaN
N-Acetylneuraminic acid,HMDB00230,3.765,1,m,NA,0.0847,-1,CC(=O)N[C@@H]1[C@@H](O)C[C@](O)(O[C@H]1[C@H](O)[C@H](O)CO)C(O)=O,InChIKey=SQVRNKJHWKZAKO-PFQGKNLYSA-N,2.89,6.96,0.57,8.6,NaN,NaN,11.9,NaN,NaN,NaN,NaN,NaN,NaN,NaN
L-Arabitol,HMDB01851,3.765,2,td,NA,0.283,0,OC[C@H](O)C(O)[C@@H](O)CO,InChIKey=HEBKCHPVOIAQTA-IMJSIDKUSA-N,-2,-1.6,2,19.28,NaN,NaN,28.9,NaN,NaN,NaN,NaN,NaN,NaN,NaN
Glyceraldehyde,HMDB01051,3.765,2,dd,11.42 3.04,0.9311,0,OCC(O)C=O,InChIKey=MNQZXJOMYWMBOU-UHFFFAOYSA-N,1.37,-1.4,1476,NaN,NaN,NaN,NaN,NaN,NaN,NaN,NaN,NaN,NaN,NaN
3-Deoxyarabinohexonic acid,HMDB00346,3.765,1,dd,11.33 2.92,0.3914,-1,OC[C@@H](O)[C@@H](O)C[C@H](O)C(O)=O,InChIKey=YGMNHEPVTNXLLS-VAYJURFESA-N,4.31,-7.3,NA,NA,NA,NA,NA,NA,NA,NA,NA,NA,NA,NA
Cellobiose,HMDB00055,3.765,3,dd,12.36 5.82,0.163,0,OC[C@H]1O[C@@H](O[C@H]2[C@H](O)[C@@H](O)[C@H](O)O[C@@H]2CO)[C@H](O)[C@@H](O)[C@@H]1O,InChIKey=GUBGYTABKSRVRQ-QRZGKKJRSA-N,11.7,1.83,NA,NA,NA,NA,NA,NA,NA,NA,NA,NA,NA,NA
Methylhippuric acid,HMDB00859,3.765,3,s,NA,0.5892,0,COC(=O)CNC(=O)C1=CC=CC=C1,InChIKey=XTKVNQKOTKPCKM-UHFFFAOYSA-N,1.22,-3.2,NA,NA,NA,NA,NA,NA,NA,NA,NA,NA,NA,NA
Ondansetron,HMDB05035,3.765,3,s,NA,0.2583,1,CN1C2=C(C3=CC=CC=C13)C(=O)C(CN1C=CN=C1C)CC2,InChIKey=FELGMEQIXOGIFQ-UHFFFAOYSA-N,1.87,10,NA,NA,NA,NA,NA,NA,NA,NA,NA,NA,NA,NA
Sedoheptulose,HMDB03219,3.765,1,dd,8.78 4.48,0.3797,0,OCC(O)C(O)C(O)C(O)C(=O)CO,InChIKey=HSNZZMHEPUFJNZ-UHFFFAOYSA-N,14.58,-3,NA,NA,NA,NA,NA,NA,NA,NA,NA,NA,NA,NA
Tolnaftate,HMDB05005,3.765,3,s,NA,0.0397,0,CN(C(=S)OC1=CC2=CC=CC=C2C=C1)C1=CC=CC(C)=C1,InChIKey=FUSNMLFNXJSCDI-UHFFFAOYSA-N,1.87,10,NA,NA,NA,NA,NA,NA,NA,NA,NA,NA,NA,NA
3-Methoxy-4-Hydroxyphenylglycol sulfate,HMDB03332,3.765,2,m,NA,0.1254,-1,COC1=C(O)C=CC(=C1)C(CO)OS(O)(=O)=O,InChIKey=SBKADJXSGGTEPN-UHFFFAOYSA-N,14.58,-3,NaN,NaN,NaN,NaN,NaN,NaN,NaN,NaN,NaN,NaN,NaN,NaN
Acetylcholine,HMDB00895,3.765,2,t,NA,0.0716,1,CC(=O)OCC[N+](C)(C)C,InChIKey=OIPILFWXSMYKGL-UHFFFAOYSA-N,1.23,-0.005,NaN,NaN,NaN,8.56,NaN,NaN,NaN,NaN,NaN,NaN,NaN,NaN
D-Lysine,HMDB03405,3.765,1,t,6.11,0.5604,1,NCCCC[C@@H](N)C(O)=O,InChIKey=KDXKERNSBIXSRK-RXMQYKEDSA-N,14.58,-3,NaN,NaN,NaN,NaN,NaN,NaN,NaN,NaN,NaN,NaN,NaN,NaN
Glucose 1-phosphate,HMDB01586,3.765,26,m,NA,1,-2,OC[C@H]1OC(OP(O)(O)=O)[C@H](O)[C@@H](O)[C@@H]1O,InChIKey=HXXFSFRBOHSIMQ-GASJEMHNSA-N,4.95,-4,NaN,NaN,NaN,NaN,NaN,NaN,NaN,NaN,NaN,NaN,NaN,NaN
Orotidine,HMDB00788,3.765,1,dd,12.41 6.35,0.1463,-1,OC[C@H]1O[C@H]([C@H](O)[C@@H]1O)N1C(=O)NC(=O)C=C1C(O)=O,InChIKey=FKCRAVPPBFWEJD-XVFCMESISA-N,12.5,-3.6,NaN,NaN,NaN,NaN,NaN,NaN,NaN,NaN,NaN,NaN,NaN,NaN
Propionylglycine,HMDB00783,3.765,27,d,5.86,0.8356,-1,CCC(=O)NCC(O)=O,InChIKey=WOMAZEJKVZLLFE-UHFFFAOYSA-N,1.77,-3.5,NaN,NaN,NaN,NaN,NaN,NaN,NaN,NaN,NaN,NaN,NaN,NaN
Saccharopine,HMDB00279,3.765,1,t,6.09,0.2104,-1,N[C@@H](CCCCN[C@@H](CCC(O)=O)C(O)=O)C(O)=O,InChIKey=ZDGJAHTZVHVLOT-YUMQZZPRSA-N,4.48,-2.8,NaN,NaN,NaN,NaN,NaN,NaN,NaN,NaN,NaN,NaN,NaN,NaN
Sucrose,HMDB00258,3.765,1,t,9.57,0.2984,0,OC[C@H]1O[C@@](CO)(O[C@H]2O[C@H](CO)[C@@H](O)[C@H](O)[C@H]2O)[C@@H](O)[C@@H]1O,InChIKey=CZMRCDWAGMRECN-UGDNZRGBSA-N,8.75,9.83,NaN,5.86275,NaN,NaN,NaN,NaN,NaN,NaN,NaN,NaN,NaN,NaN
Thymidine,HMDB00273,3.772,1,m,NA,0.1854,0,CC1=CN([C@H]2C[C@H](O)[C@@H](CO)O2)C(=O)NC1=O,InChIKey=IQFYYKKMVGJFEH-XLPZGREQSA-N,18.3,-5.5,0.205,6.87,NaN,NaN,NaN,NaN,NaN,NaN,NaN,NaN,NaN,NaN
3.5-Diiodothyronine,HMDB00582,3.775,1,dd,NA,0.0029,0,NC(CC1=CC(I)=C(OC2=CC=C(O)C=C2)C(I)=C1)C(O)=O,InChIKey=ZHSOTLOTTDYIIK-UHFFFAOYSA-N,12.59,-1.1,1.60E-05,1.80E-05,NaN,NaN,NaN,NaN,NaN,NaN,NaN,NaN,NaN,NaN
Deoxyuridine,HMDB00012,3.775,7,dd,NA,0.1048,0,OC[C@H]1O[C@H](C[C@@H]1O)N1C=CC(=O)NC1=O,InChIKey=MXHRCPNRJAMMIM-SHYZEUOFSA-N,4,-9.7,0.284,1,NaN,NaN,0,NaN,NaN,NaN,NaN,NaN,NaN,NaN
Acetylglycine,HMDB00532,3.775,28,d,5.82,0.3763,-1,CC(=O)NCC(O)=O,InChIKey=OKJIRPAQVSHGFK-UHFFFAOYSA-N,18.3,-1.4,69.7,NaN,NaN,56.76,NaN,NaN,NaN,NaN,NaN,NaN,NaN,NaN
L-Arginine,HMDB00517,3.775,2,t,6.11,0.5667,1,N[C@@H](CCCN=C(N)N)C(O)=O,InChIKey=ODKSFYDXXFIFQN-BYPYZUCNSA-N,12.21,-0.95,116.45,NA,NaN,35.73,18.2075,NaN,NaN,NaN,NaN,NaN,NaN,NaN
D-Arginine,HMDB03416,3.775,1,t,6.11,0.5509,1,N[C@H](CCCNC(N)=N)C(O)=O,InChIKey=ODKSFYDXXFIFQN-SCSAIBSYSA-N,14.58,-3,NA,NA,NA,NA,NA,NA,NA,NA,NA,NA,NA,NA
3.4.5-Trimethoxycinnamic acid,HMDB02511,3.775,3,s,NA,0.6457,-1,COC1=CC(\C=C\C(O)=O)=CC(OC)=C1OC,InChIKey=YTFVRYKNXDADBI-SNAWJCMRSA-N,15.1,-3.9,NaN,NaN,NaN,NaN,NaN,NaN,NaN,NaN,NaN,NaN,NaN,NaN
Argininosuccinic acid,HMDB00052,3.775,1,t,6.13,0.6615,-1,N[C@@H](CCCNC(=N)N[C@@H](CC(O)=O)C(O)=O)C(O)=O,InChIKey=KDZOASGQNOPSCU-WDSKDSINSA-N,0.83,-9.9,NaN,0.0032,NaN,NaN,NaN,NaN,NaN,NaN,NaN,NaN,NaN,NaN
Beta-N-Acetylglucosamine,HMDB00803,3.775,3,m,NA,0.1179,0,CC(=O)N[C@H]1[C@H](O)O[C@H](CO)[C@@H](O)[C@@H]1O,InChIKey=OVRNDRQMDRJTHS-FMDGEEDCSA-N,1.16,8.69,NaN,NaN,NaN,NaN,NaN,NaN,NaN,NaN,NaN,NaN,NaN,NaN
D-Glutamine,HMDB03423,3.775,1,t,6.16,0.8995,0,N[C@H](CCC(N)=O)C(O)=O,InChIKey=ZDXPYRJPNDTMRX-GSVOUGTGSA-N,14.58,-3,NaN,NaN,NaN,NaN,NaN,NaN,NaN,NaN,NaN,NaN,NaN,NaN
D-Maltose,HMDB00163,3.775,4,m,NA,0.8485,0,OC[C@H]1O[C@H](O[C@H]2[C@H](O)[C@H](O)[C@@H](O)O[C@@H]2CO)[C@H](O)[C@@H](O)[C@@H]1O,InChIKey=GUBGYTABKSRVRQ-DKBJLJRDSA-N,7.93,9.34,NaN,NaN,NaN,NaN,NaN,NaN,NaN,NaN,NaN,NaN,NaN,NaN
Gluconolactone,HMDB00150,3.775,2,m,NA,1,0,OC[C@H]1OC(=O)[C@H](O)[C@@H](O)[C@@H]1O,InChIKey=PHOQVHQSTUBQQK-SQOUGZDYSA-N,4.22,-0.38,NaN,NaN,NaN,NaN,NaN,NaN,NaN,NaN,NaN,NaN,NaN,NaN
Loratadine,HMDB05000,3.775,2,m,NA,0.0199,0,CCOC(=O)N1CCC(CC1)=C1C2=C(CCC3=CC=CN=C13)C=C(Cl)C=C2,InChIKey=JCCNYMKQOSZNPW-UHFFFAOYSA-N,1.87,10,NaN,NaN,NaN,NaN,NaN,NaN,NaN,NaN,NaN,NaN,NaN,NaN
Maltotetraose,HMDB01296,3.775,3,m,NA,0.6092,0,OC[C@H]1O[C@H](O[C@H]2[C@H](O)[C@@H](O)[C@@H](O[C@H]3[C@H](O)[C@@H](O)[C@@H](O[C@H]4[C@H](O)[C@@H](O)C(O)O[C@@H]4CO)O[C@@H]3CO)O[C@@H]2CO)[C@H](O)[C@@H](O)[C@@H]1O,InChIKey=LUEWUZLMQUOBSB-AYQJAVFRSA-N,3.23,5.58,NaN,NaN,NaN,NaN,NaN,NaN,NaN,NaN,NaN,NaN,NaN,NaN
N-Acetylgalactosamine,HMDB00212,3.775,5,m,NA,0.2183,0,CC(=O)N[C@H]1[C@@H](O)O[C@H](CO)[C@H](O)[C@@H]1O,InChIKey=OVRNDRQMDRJTHS-CBQIKETKSA-N,15.7,-3.3,NaN,NaN,NaN,NaN,NaN,NaN,NaN,NaN,NaN,NaN,NaN,NaN
Raffinose,HMDB03213,3.775,4,m,NA,0.8129,0,OC[C@H]1O[C@@](CO)(OC2O[C@H](COC3O[C@H](CO)[C@H](O)[C@H](O)[C@H]3O)[C@@H](O)[C@H](O)[C@H]2O)[C@@H](O)[C@@H]1O,InChIKey=MUPFEKGTMRGPLJ-BQCSWRFHSA-N,14.58,-3,NaN,NaN,NaN,NaN,NaN,NaN,NaN,NaN,NaN,NaN,NaN,NaN
Trehalose,HMDB00975,3.775,12,m,NA,0.4621,0,OC[C@H]1O[C@H](O[C@H]2O[C@H](CO)[C@@H](O)[C@H](O)[C@H]2O)[C@H](O)[C@@H](O)[C@@H]1O,InChIKey=HDTRYLNUVZCQOY-LIZSDCNHSA-N,4.35,5,NaN,NaN,NaN,NaN,NaN,NaN,NaN,NaN,NaN,NaN,NaN,NaN
Gluconic acid,HMDB00625,3.776,2,m,NA,1,-1,OC[C@@H](O)[C@@H](O)[C@H](O)[C@@H](O)C(O)=O,InChIKey=RGHNJXZEOKUKBD-SQOUGZDYSA-N,14.58,-3,NA,NaN,NaN,45.49,NaN,NaN,NaN,NaN,NaN,NaN,NaN,NaN
Sorbitol,HMDB00247,3.779,1,m,NA,0.249,0,OC[C@H](O)[C@@H](O)[C@H](O)[C@H](O)CO,InChIKey=FBPFZTCFMRRESA-JGWLITMVSA-N,4.48,-0.54,7.045,3.5,NaN,NA,16.3,NaN,NaN,NaN,NaN,NaN,NaN,NaN
L-Glutamine,HMDB00641,3.781,1,t,6.18,1,0,N[C@@H](CCC(N)=O)C(O)=O,InChIKey=ZDXPYRJPNDTMRX-VKHMYHEASA-N,2.97,-1.5,529.6666667,30.04,NaN,NA,501,NaN,NaN,NaN,NaN,NaN,NaN,NaN
5-Hydroxylysine,HMDB00450,3.785,13,m,NA,1,1,NC[C@H](O)CC[C@H](N)C(O)=O,InChIKey=YSMODUONRAFBET-UHNVWZDZSA-N,1.87,-3,2.5,0.555,NaN,NaN,NaN,NaN,NaN,NaN,NaN,NaN,NaN,NaN
L-Homoserine,HMDB00719,3.785,2,m,5.58,1,0,N[C@@H](CCO)C(O)=O,InChIKey=UKAUYVFTDYCKQA-VKHMYHEASA-N,9.55,-7.4,12,NaN,NaN,NaN,NaN,NaN,NaN,NaN,NaN,NaN,NaN,NaN
L-Alanine,HMDB00161,3.785,1,q,7.23,0.203,0,C[C@H](N)C(O)=O,InChIKey=QNAYBMKLOCPYGJ-REOHCLBHSA-N,15.5,-3,448.4,25.86,NaN,NA,25.1075,NaN,NaN,NaN,NaN,NaN,NaN,NaN
Hesperidin,HMDB03265,3.785,4,m,NA,0.5813,0,COC1=CC=C(C=C1O)[C@@H]1CC(=O)C2=C(O1)C=C(OC1O[C@H](CO[C@H]3O[C@@H](C)[C@@H](O)[C@@H](O)[C@H]3O)[C@H](O)[C@H](O)[C@H]1O)C=C2O,InChIKey=QUQPHWDTPGMPEX-UNZJSITISA-N,14.58,-3,NA,NA,NA,NA,NA,NA,NA,NA,NA,NA,NA,NA
Lisinopril,HMDB01938,3.785,1,t,6.21,0.3458,0,NCCCC[C@H](N[C@@H](CCC1=CC=CC=C1)C(O)=O)C(=O)N1CCC[C@H]1C(O)=O,InChIKey=RLAWWYSOJDYHDC-BZSNNMDCSA-N,2.04,-3,NA,NA,NA,NA,NA,NA,NA,NA,NA,NA,NA,NA
Cysteineglutathione disulfide,HMDB00656,3.785,19,m,NA,1,-1,N[C@@H](CCC(=O)N[C@@H](CSSCC(N)C(O)=O)C(=O)NCC(O)=O)C(O)=O,InChIKey=BNRXZEPOHPEEAS-PPSBICQBSA-N,5.04,-1.4,NaN,NaN,NaN,NaN,NaN,NaN,NaN,NaN,NaN,NaN,NaN,NaN
D-Alanine,HMDB01310,3.785,1,q,7.23,0.1846,0,C[C@@H](N)C(O)=O,InChIKey=QNAYBMKLOCPYGJ-UWTATZPHSA-N,4.21,-1.2,NaN,NaN,NaN,NaN,NaN,NaN,NaN,NaN,NaN,NaN,NaN,NaN
Erythritol,HMDB02994,3.785,3,d,11.26,1,0,OC[C@H](O)[C@H](O)CO,InChIKey=UNXHWFMMPAWVPI-ZXZARUISSA-N,1.73,-4.7,NaN,60,NaN,NaN,37,NaN,NaN,NaN,NaN,NaN,NaN,NaN