Metabolite,HMDB Name,Shift (ppm),Hs,Type,J (Hz),Height,Physiological Charge,SMILES,InChlKey,pKa (Strongest Acidic),pKa (Strongest Basic),Blood,Urine,Feces,Saliva,Cerebrospinal Fluid (CSF),Amniotic Fluid,Aqueous Humour,Ascites Fluid,Breast Milk,Lymph,Sweat,Tears
Furosemide,HMDB01933,7.475,1,s,NA,0.0375,-1,NS(=O)(=O)C1=C(Cl)C=C(NCC2=CC=CO2)C(=C1)C(O)=O,InChIKey=ZZUFCTLCJUWOSV-UHFFFAOYSA-N,3.13,4.99,NA,NA,NA,NA,NA,NA,NA,NA,NA,NA,NA,NA
5-Methoxytryptamine,HMDB04095,7.475,1,d,8.86,0.1554,1,COC1=CC2=C(NC=C2CCN)C=C1,InChIKey=JTEJPPKMYBDEMY-UHFFFAOYSA-N,1.86,-6.7,NaN,NaN,NaN,NaN,NaN,NaN,NaN,NaN,NaN,NaN,NaN,NaN
Ellagic acid,HMDB02899,7.475,2,s,NA,0.3993,-2,OC1=C(O)C2=C3C(=C1)C(=O)OC1=C3C(=CC(O)=C1O)C(=O)O2,InChIKey=AFSDNFLWKVMVRB-UHFFFAOYSA-N,11.92,-7,NaN,NaN,NaN,NaN,NaN,NaN,NaN,NaN,NaN,NaN,NaN,NaN
Clotrimazole,HMDB01922,7.485,1,dd,NA,0.1007,0,ClC1=CC=CC=C1C(N1C=CN=C1)(C1=CC=CC=C1)C1=CC=CC=C1,InChIKey=VNFPBHJOKIVQEB-UHFFFAOYSA-N,10.23,-1.7,NA,NA,NA,NA,NA,NA,NA,NA,NA,NA,NA,NA
Salicylic acid,HMDB01895,7.485,22,m,NA,0.5928,-1,OC(=O)C1=CC=CC=C1O,InChIKey=YGSDEFSMJLZEOE-UHFFFAOYSA-N,2.83,0.22,NaN,1.1,NaN,NaN,NaN,NaN,NaN,NaN,NaN,NaN,NaN,NaN
Deacetyldiltiazem,HMDB02873,7.488,3,m,NA,0.1208,1,COC1=CC=C(C=C1)[C@@H]1SC2=CC=CC=C2N(CCN(C)C)C(=O)[C@@H]1O,InChIKey=NZHUXMZTSSZXSB-MOPGFXCFSA-N,2.52,-4,NA,NA,NA,NA,NA,NA,NA,NA,NA,NA,NA,NA
Benzoic acid,HMDB01870,7.488,2,dd,7.33 7.11,1,-1,OC(=O)C1=CC=CC=C1,InChIKey=WPYMKLBDIGXBTP-UHFFFAOYSA-N,15.09,4.95,NaN,36.76666667,NaN,NaN,NaN,NaN,NaN,NaN,NaN,NaN,NaN,NaN
Amlodipine,HMDB05018,7.495,1,dd,NA,0.1055,1,CCOC(=O)C1=C(COCCN)NC(C)=C(C1C1=CC=CC=C1Cl)C(=O)OC,InChIKey=HTIQEAQVCYTUBX-UHFFFAOYSA-N,1.87,10,NA,NA,NA,NA,NA,NA,NA,NA,NA,NA,NA,NA
Methylhippuric acid,HMDB00859,7.495,2,m,NA,0.0973,0,COC(=O)CNC(=O)C1=CC=CC=C1,InChIKey=XTKVNQKOTKPCKM-UHFFFAOYSA-N,1.22,-3.2,NA,NA,NA,NA,NA,NA,NA,NA,NA,NA,NA,NA
2-Phenylglycine,HMDB02210,7.495,3,m,NA,0.4265,0,NC(C(O)=O)C1=CC=CC=C1,InChIKey=ZGUNAGUHMKGQNY-UHFFFAOYSA-N,9.64,-3.6,NaN,NaN,NaN,NaN,NaN,NaN,NaN,NaN,NaN,NaN,NaN,NaN
Salicyluric acid,HMDB00840,7.495,1,ddd,8.42 7.15 1.67,0.5017,-1,OC(=O)CNC(=O)C1=CC=CC=C1O,InChIKey=ONJSZLXSECQROL-UHFFFAOYSA-N,3.7,5.43,NaN,NaN,NaN,NaN,NaN,NaN,NaN,NaN,NaN,NaN,NaN,NaN
Diphenhydramine,HMDB01927,7.504,2,dd,7.38 1.48,0.2591,1,CN(C)CCOC(C1=CC=CC=C1)C1=CC=CC=C1,InChIKey=ZZVUWRFHKOJYTH-UHFFFAOYSA-N,1.87,10,NaN,NaN,NaN,NaN,NaN,NaN,NaN,NaN,NaN,NaN,NaN,NaN
Clotrimazole,HMDB01922,7.505,1,t,1.13,0.1007,0,ClC1=CC=CC=C1C(N1C=CN=C1)(C1=CC=CC=C1)C1=CC=CC=C1,InChIKey=VNFPBHJOKIVQEB-UHFFFAOYSA-N,10.23,-1.7,NA,NA,NA,NA,NA,NA,NA,NA,NA,NA,NA,NA
Phenylpropiolic acid,HMDB02359,7.505,4,m,NA,0.1604,-1,OC(=O)C#CC1=CC=CC=C1,InChIKey=XNERWVPQCYSMLC-UHFFFAOYSA-N,4.88,10,NA,NA,NA,NA,NA,NA,NA,NA,NA,NA,NA,NA
3-Indolepropionic acid,HMDB02302,7.505,11,d,8.15,0.6525,-1,OC(=O)CCC1=CNC2=CC=CC=C12,InChIKey=GOLXRNDWAUTYKT-UHFFFAOYSA-N,2.45,-2.9,NaN,NaN,NaN,NaN,NaN,NaN,NaN,NaN,NaN,NaN,NaN,NaN
Cytosine,HMDB00630,7.505,1,d,7.17,1,0,NC1=CC=NC(=O)N1,InChIKey=OPTASPLRGRRNAP-UHFFFAOYSA-N,2.84,0.98,NaN,NaN,NaN,NaN,NaN,NaN,NaN,NaN,NaN,NaN,NaN,NaN
Phenylpropanolamine,HMDB01942,7.505,1,m,NA,0.3714,1,C[C@@H](N)[C@@H](O)C1=CC=CC=C1,InChIKey=DLNKOYKMWOXYQA-VXNVDRBHSA-N,1.87,10,NaN,NaN,NaN,NaN,NaN,NaN,NaN,NaN,NaN,NaN,NaN,NaN
3-Methylindole,HMDB00466,7.506,1,d,8.19,0.0921,0,CC1=CNC2=C1C=CC=C2,InChIKey=ZFRKQXVRDFCRJG-UHFFFAOYSA-N,2.76,-0.88,NaN,NaN,NaN,NaN,NaN,NaN,NaN,NaN,NaN,NaN,NaN,NaN
Indolelactic acid,HMDB00671,7.514,1,d,8.14,0.6923,-1,OC(CC1=CNC2=C1C=CC=C2)C(O)=O,InChIKey=XGILAAMKEQUXLS-UHFFFAOYSA-N,7.6,5,2.8,0.46,NaN,NaN,NaN,NaN,NaN,NaN,NaN,NaN,NaN,NaN
Folic acid,HMDB00121,7.515,1,d,8.43,0.9074,-2,NC1=NC(=O)C2=NC(CNC3=CC=C(C=C3)C(=O)N[C@@H](CCC(O)=O)C(O)=O)=CN=C2N1,InChIKey=OVBPIULPVIDEAO-LBPRGKRZSA-N,11.25,-3.7,0.039333333,NA,NaN,NaN,0.053,NaN,NaN,NaN,NaN,NaN,NaN,NaN
Indoleacetic acid,HMDB00197,7.515,1,d,8.15,0.2775,-1,OC(=O)CC1=CNC2=C1C=CC=C2,InChIKey=SEOVTRFCIGRIMH-UHFFFAOYSA-N,7.61,-2.2,0.983333333,5.6,NaN,1.6455,0.029,NaN,NaN,NaN,NaN,NaN,NaN,NaN
Ethenodeoxyadenosine,HMDB01786,7.515,1,d,1.6,0.5364,0,OC[C@H]1O[C@H](C[C@@H]1O)N1C=NC2=C1N=CN1C=CN=C21,InChIKey=XQQIMTUYVDUWKJ-DJLDLDEBSA-N,7.67,4.94,NA,NA,NA,NA,NA,NA,NA,NA,NA,NA,NA,NA
Indoxyl,HMDB04094,7.515,5,m,NA,0.0238,0,OC1=CNC2=CC=CC=C12,InChIKey=PCKPVGOLPKLUHR-UHFFFAOYSA-N,1.86,-6.7,NA,NA,NA,NA,NA,NA,NA,NA,NA,NA,NA,NA
Coumarin,HMDB01218,7.515,1,dd,NA,0.3239,0,O=C1OC2=CC=CC=C2C=C1,InChIKey=ZYGHJZDHTFUPRJ-UHFFFAOYSA-N,18.92,-7.1,NaN,NaN,NaN,NaN,NaN,NaN,NaN,NaN,NaN,NaN,NaN,NaN
Propranolol,HMDB01849,7.515,1,t,7.97,0.2743,1,CC(C)NCC(O)COC1=CC=CC2=CC=CC=C12,InChIKey=AQHHHDLHHXJYJD-UHFFFAOYSA-N,3.16,-4.2,NaN,NaN,NaN,NaN,NaN,NaN,NaN,NaN,NaN,NaN,NaN,NaN
Indoxyl sulfate,HMDB00682,7.522,1,d,8.24,0.3165,-1,OS(=O)(=O)OC1=CNC2=CC=CC=C12,InChIKey=BXFFHSIDQOFMLE-UHFFFAOYSA-N,14.58,-3,2.49,NA,NaN,NaN,NaN,NaN,NaN,NaN,NaN,NaN,NaN,NaN
Cotinine,HMDB01046,7.525,1,dd,7.84 5.02,0.0947,0,CN1C(CCC1=O)C1=CN=CC=C1,InChIKey=UIKROCXWUNQSPJ-UHFFFAOYSA-N,1.68,-0.81,1.4,NaN,NaN,NA,NaN,NaN,NaN,NaN,NaN,NaN,NaN,NaN
Caffeine,HMDB01847,7.525,1,s,NA,0.2472,0,CN1C=NC2=C1C(=O)N(C)C(=O)N2C,InChIKey=RYYVLZVUVIJVGH-UHFFFAOYSA-N,3.78,-2.4,78,0.33,NaN,9.65,NaN,NaN,NaN,NaN,NaN,NaN,NaN,NaN
Uracil,HMDB00300,7.535,1,d,7.68,1,0,O=C1NC=CC(=O)N1,InChIKey=ISAKRJDGNUQOIC-UHFFFAOYSA-N,2.56,-2.7,1.135,6.593333333,NaN,38.89,0.1,NaN,NaN,NaN,NaN,NaN,NaN,NaN
Vanillic acid,HMDB00484,7.535,3,d,1.69,0.2474,-1,COC1=CC(=CC=C1O)C(O)=O,InChIKey=WKOLLVMJNQIZCI-UHFFFAOYSA-N,4.62,-1.4,4.8,11.2,NaN,NaN,NaN,NaN,NaN,NaN,NaN,NaN,NaN,NaN
3-Furoic acid,HMDB00444,7.535,1,t,1.65,0.5759,-1,OC(=O)C1=COC=C1,InChIKey=IHCCAYCGZOLTEU-UHFFFAOYSA-N,18.3,-3.6,NA,NA,NA,NA,NA,NA,NA,NA,NA,NA,NA,NA
3-Indolebutyric acid,HMDB02096,7.535,1,d,7.92,0.3128,-1,OC(=O)CCCC1=CNC2=CC=CC=C12,InChIKey=JTEDVYBZBROSJT-UHFFFAOYSA-N,3.62,-3.6,NaN,NaN,NaN,NaN,NaN,NaN,NaN,NaN,NaN,NaN,NaN,NaN
Isoxanthopterin,HMDB00704,7.535,1,s,NA,0.1522,0,NC1=NC(=O)C2=C(N1)NC(=O)C=N2,InChIKey=GLKCOBIIZKYKFN-UHFFFAOYSA-N,2.49,-4.3,NaN,NaN,NaN,NaN,NaN,NaN,NaN,NaN,NaN,NaN,NaN,NaN
Omeprazole,HMDB01913,7.535,1,d,8.91,0.0429,0,COC1=CC2=C(C=C1)N=C(N2)S(=O)CC1=NC=C(C)C(OC)=C1C,InChIKey=SUBDBMMJDZJVOS-UHFFFAOYSA-N,3.26,-3.8,NaN,NaN,NaN,NaN,NaN,NaN,NaN,NaN,NaN,NaN,NaN,NaN
4-Pyridoxic acid,HMDB00017,7.545,31,s,NA,0.2768,-1,CC1=NC=C(CO)C(C(O)=O)=C1O,InChIKey=HXACOUQIXZGNBF-UHFFFAOYSA-N,4.23,0.025,0.0335,NaN,NaN,NaN,NaN,NaN,NaN,NaN,NaN,NaN,NaN,NaN
Picolinic acid,HMDB02243,7.545,1,ddd,7.50 4.94 1.32,0.4883,-1,OC(=O)C1=CC=CC=N1,InChIKey=SIOXPEMLGUPBBT-UHFFFAOYSA-N,3.92,-2.7,0.299,1.65,NaN,NaN,0.31,NaN,NaN,NaN,NaN,NaN,NaN,NaN
L-Tryptophan,HMDB00929,7.546,11,d,8.159,NA,0,N[C@@H](CC1=CNC2=CC=CC=C12)C(O)=O,InChIKey=QIVBCDIJIAJPQS-VIFPVBQESA-N,1.86,4.79,58.96666667,4.8066,NaN,2.65,7.335,NaN,NaN,NaN,NaN,NaN,NaN,NaN
Kynurenic acid,HMDB00715,7.554,1,d,8.4,0.4226,-1,OC(=O)C1=CC(=O)C2=CC=CC=C2N1,InChIKey=HCZHHEIFKROPDY-UHFFFAOYSA-N,1.48,9.57,0.0265,1.34,NaN,NaN,NaN,NaN,NaN,NaN,NaN,NaN,NaN,NaN
FAD,HMDB01248,7.555,1,s,NA,0.2778,-3,CC1=CC2=C(C=C1C)N(C[C@H](O)[C@H](O)[C@H](O)COP(O)(=O)OP(O)(=O)OC[C@H]1O[C@H]([C@H](O)[C@@H]1O)N1C=NC3=C1N=CN=C3N)C1=NC(=O)NC(=O)C1=N2,InChIKey=VWWQXMAJTJZDQX-UYBVJOGSSA-N,10.59,-2.6,0.075,NaN,NaN,NaN,NaN,NaN,NaN,NaN,NaN,NaN,NaN,NaN
Hippuric acid,HMDB00714,7.555,2,none,NA,0.5759,-1,OC(=O)CNC(=O)C1=CC=CC=C1,InChIKey=QIAFMBKCNZACKA-UHFFFAOYSA-N,3.39,-3,9.87,255.32,NaN,NaN,NaN,NaN,NaN,NaN,NaN,NaN,NaN,NaN
Alpha-Hydroxyhippuric acid,HMDB02404,7.555,2,m,NA,0.998,-1,OC(NC(=O)C1=CC=CC=C1)C(O)=O,InChIKey=GCWCVCCEIQXUQU-UHFFFAOYSA-N,4.17,-6.6,NA,NA,NA,NA,NA,NA,NA,NA,NA,NA,NA,NA
FADH,HMDB01197,7.555,1,s,NA,0.2778,-2,CC1=CC2=C(C=C1C)N(C[C@H](O)[C@H](O)[C@H](O)COP(O)(=O)OP(O)(=O)OC[C@H]1O[C@H]([C@H](O)[C@@H]1O)N1C=NC3=C1N=CN=C3N)C1=C(N2)C(=O)NC(=O)N1,InChIKey=YPZRHBJKEMOYQH-UYBVJOGSSA-N,3.63,-3.4,NA,NA,NA,NA,NA,NA,NA,NA,NA,NA,NA,NA
Flavone,HMDB03075,7.555,4,m,NA,0.733,0,O=C1C=C(OC2=CC=CC=C12)C1=CC=CC=C1,InChIKey=VHBFFQKBGNRLFZ-UHFFFAOYSA-N,1.86,-0.52,NA,NA,NA,NA,NA,NA,NA,NA,NA,NA,NA,NA
Methylhippuric acid,HMDB00859,7.555,1,tt,NA,0.0473,0,COC(=O)CNC(=O)C1=CC=CC=C1,InChIKey=XTKVNQKOTKPCKM-UHFFFAOYSA-N,1.22,-3.2,NA,NA,NA,NA,NA,NA,NA,NA,NA,NA,NA,NA
4-Methoxycinnamic acid,HMDB02040,7.555,2,m,NA,0.1536,-1,COC1=CC=C(\C=C\C(O)=O)C=C1,InChIKey=AFDXODALSZRGIH-QPJJXVBHSA-N,12.45,-3.1,NaN,NaN,NaN,NaN,NaN,NaN,NaN,NaN,NaN,NaN,NaN,NaN
Brompheniramine,HMDB01941,7.555,8,d,8.46,0.1439,1,CN(C)CCC(C1=CC=C(Br)C=C1)C1=CC=CC=N1,InChIKey=ZDIGNSYAACHWNL-UHFFFAOYSA-N,2.58,9.64,NaN,NaN,NaN,NaN,NaN,NaN,NaN,NaN,NaN,NaN,NaN,NaN
Indole,HMDB00738,7.555,1,d,8.19,0.2599,0,N1C=CC2=C1C=CC=C2,InChIKey=SIKJAQJRHWYJAI-UHFFFAOYSA-N,19.78,12.39,NaN,NaN,NaN,NaN,NaN,NaN,NaN,NaN,NaN,NaN,NaN,NaN
Tryptamine,HMDB00303,7.555,1,d,8.19,0.3926,1,NCCC1=CNC2=CC=CC=C12,InChIKey=APJYDQYYACXCRM-UHFFFAOYSA-N,4.39,-0.16,NaN,0.026,NaN,NaN,NaN,NaN,NaN,NaN,NaN,NaN,NaN,NaN
Benzoic acid,HMDB01870,7.559,1,t,7.33,0.4648,-1,OC(=O)C1=CC=CC=C1,InChIKey=WPYMKLBDIGXBTP-UHFFFAOYSA-N,15.09,4.95,NaN,36.76666667,NaN,NaN,NaN,NaN,NaN,NaN,NaN,NaN,NaN,NaN
Quercetin,HMDB05794,7.561,1,dd,8.46 2.08,0.587,-1,OC1=CC(O)=C2C(OC(=C(O)C2=O)C2=CC(O)=C(O)C=C2)=C1,InChIKey=REFJWTPEDVJJIY-UHFFFAOYSA-N,1.87,10,0.045,0.0065,NaN,NaN,NaN,NaN,NaN,NaN,NaN,NaN,NaN,NaN
Chalcone,HMDB03066,7.565,2,m,NA,0.1117,0,O=C(\C=C\C1=CC=CC=C1)C1=CC=CC=C1,InChIKey=DQFBYFPFKXHELB-VAWYXSNFSA-N,1.86,-0.52,NA,NA,NA,NA,NA,NA,NA,NA,NA,NA,NA,NA
Coumarin,HMDB01218,7.565,1,t,NA,0.3199,0,O=C1OC2=CC=CC=C2C=C1,InChIKey=ZYGHJZDHTFUPRJ-UHFFFAOYSA-N,18.92,-7.1,NaN,NaN,NaN,NaN,NaN,NaN,NaN,NaN,NaN,NaN,NaN,NaN
Pyridoxal,HMDB01545,7.581,2,s,NA,0.0574,0,CC1=C(O)C(C=O)=C(CO)C=N1,InChIKey=RADKZDMFGJYCBB-UHFFFAOYSA-N,0.83,-4.9,0.251,NaN,NaN,NaN,NaN,NaN,NaN,NaN,NaN,NaN,NaN,NaN
Citalopram,HMDB05038,7.585,2,s,NA,0.0164,1,CN(C)CCCC1(OCC2=C1C=CC(=C2)C#N)C1=CC=C(F)C=C1,InChIKey=WSEQXVZVJXJVFP-UHFFFAOYSA-N,1.87,10,NA,NA,NA,NA,NA,NA,NA,NA,NA,NA,NA,NA
Levofloxacin,HMDB01929,7.595,1,d,12.24,0.1063,-1,C[C@H]1COC2=C(N3CCN(C)CC3)C(F)=CC3=C2N1C=C(C(O)=O)C3=O,InChIKey=GSDSWSVVBLHKDQ-JTQLQIEISA-N,3.51,-6.3,0.135,NaN,NaN,NaN,NaN,NaN,NaN,NaN,NaN,NaN,NaN,NaN
Niacinamide,HMDB01406,7.595,1,dd,7.90 5.06,0.4958,0,NC(=O)C1=CN=CC=C1,InChIKey=DFPAKSUCGFBDDF-UHFFFAOYSA-N,4.86,3.72,0.235,NaN,NaN,NaN,NaN,NaN,NaN,NaN,NaN,NaN,NaN,NaN
Flavone,HMDB03075,7.595,1,dd,8.42 0.55,0.2924,0,O=C1C=C(OC2=CC=CC=C12)C1=CC=CC=C1,InChIKey=VHBFFQKBGNRLFZ-UHFFFAOYSA-N,1.86,-0.52,NA,NA,NA,NA,NA,NA,NA,NA,NA,NA,NA,NA
Triamterene,HMDB01940,7.595,2,m,NA,0.0129,0,NC1=NC(N)=C2N=C(C(N)=NC2=N1)C1=CC=CC=C1,InChIKey=FNYLWPVRPXGIIP-UHFFFAOYSA-N,7.22,1.14,NA,NA,NA,NA,NA,NA,NA,NA,NA,NA,NA,NA
1.3-Dimethyluracil,HMDB02144,7.605,1,d,7.76,0.1238,0,CN1C=CC(=O)N(C)C1=O,InChIKey=JSDBKAHWADVXFU-UHFFFAOYSA-N,10.33,-3.5,NA,NA,NA,NA,NA,NA,NA,NA,NA,NA,NA,NA
Ondansetron,HMDB05035,7.605,1,d,NA,NA,1,CN1C2=C(C3=CC=CC=C13)C(=O)C(CN1C=CN=C1C)CC2,InChIKey=FELGMEQIXOGIFQ-UHFFFAOYSA-N,1.87,10,NA,NA,NA,NA,NA,NA,NA,NA,NA,NA,NA,NA
4-(Methylnitrosamino)-1-(3-pyridyl)-1-butanone,HMDB11603,7.605,2,m,NA,0.0805,0,CN(CCCC(=O)C1=CC=CN=C1)N=O,InChIKey=FLAQQSHRLBFIEZ-UHFFFAOYSA-N,1.86,-3,NaN,NaN,NaN,NaN,NaN,NaN,NaN,NaN,NaN,NaN,NaN,NaN
5-Hydroxymethyluracil,HMDB00469,7.605,1,s,NA,0.4419,0,OCC1=CNC(=O)NC1=O,InChIKey=JDBGXEHEIRGOBU-UHFFFAOYSA-N,2.62,-0.18,NaN,0.0626,NaN,NaN,NaN,NaN,NaN,NaN,NaN,NaN,NaN,NaN
2-Furoic acid,HMDB00617,7.606,1,dd,1.74 0.80,0.9481,-1,OC(=O)C1=CC=CO1,InChIKey=SMNDYUVBFMFKNZ-UHFFFAOYSA-N,3.58,0.02,NaN,NaN,NaN,NaN,NaN,NaN,NaN,NaN,NaN,NaN,NaN,NaN
FAD,HMDB01248,7.615,1,s,NA,0.32,-3,CC1=CC2=C(C=C1C)N(C[C@H](O)[C@H](O)[C@H](O)COP(O)(=O)OP(O)(=O)OC[C@H]1O[C@H]([C@H](O)[C@@H]1O)N1C=NC3=C1N=CN=C3N)C1=NC(=O)NC(=O)C1=N2,InChIKey=VWWQXMAJTJZDQX-UYBVJOGSSA-N,10.59,-2.6,0.075,NaN,NaN,NaN,NaN,NaN,NaN,NaN,NaN,NaN,NaN,NaN
L(-)-Nicotine pestanal,HMDB01934,7.615,1,dd,7.95 4.92,0.0779,1,CN1CCC[C@H]1C1=CN=CC=C1,InChIKey=SNICXCGAKADSCV-JTQLQIEISA-N,1.87,10,0.745,NaN,NaN,NaN,NaN,NaN,NaN,NaN,NaN,NaN,NaN,NaN
FADH,HMDB01197,7.615,1,s,NA,0.32,-2,CC1=CC2=C(C=C1C)N(C[C@H](O)[C@H](O)[C@H](O)COP(O)(=O)OP(O)(=O)OC[C@H]1O[C@H]([C@H](O)[C@@H]1O)N1C=NC3=C1N=CN=C3N)C1=C(N2)C(=O)NC(=O)N1,InChIKey=YPZRHBJKEMOYQH-UYBVJOGSSA-N,3.63,-3.4,NA,NA,NA,NA,NA,NA,NA,NA,NA,NA,NA,NA
Phenylglyoxylic acid,HMDB01587,7.615,38,t,7.87,1,-1,OC(=O)C(=O)C1=CC=CC=C1,InChIKey=FAQJJMHZNSSFSM-UHFFFAOYSA-N,3.87,-3.5,NaN,NaN,NaN,NaN,NaN,NaN,NaN,NaN,NaN,NaN,NaN,NaN
Pyrimidine,HMDB03361,7.615,1,td,5.10 1.51,0.3906,0,C1=CN=CN=C1,InChIKey=CZPWVGJYEJSRLH-UHFFFAOYSA-N,14.58,-3,NaN,NaN,NaN,NaN,NaN,NaN,NaN,NaN,NaN,NaN,NaN,NaN
3.5-Diiodo-L-tyrosine,HMDB03474,7.625,2,s,NA,1,0,N[C@@H](CC1=CC(I)=C(O)C(I)=C1)C(O)=O,InChIKey=NYPYHUZRZVSYKL-ZETCQYMHSA-N,14.58,-3,0.0036,4.90E-05,NaN,NaN,NaN,NaN,NaN,NaN,NaN,NaN,NaN,NaN
Phenylpropiolic acid,HMDB02359,7.625,14,m,NA,0.3609,-1,OC(=O)C#CC1=CC=CC=C1,InChIKey=XNERWVPQCYSMLC-UHFFFAOYSA-N,4.88,10,NA,NA,NA,NA,NA,NA,NA,NA,NA,NA,NA,NA
Cinnamic acid,HMDB00567,7.625,1,dd,7.95 1.13,0.9219,-1,OC(=O)\C=C/C1=CC=CC=C1,InChIKey=WBYWAXJHAXSJNI-SREVYHEPSA-N,4.2,-2.7,NaN,NaN,NaN,NaN,NaN,NaN,NaN,NaN,NaN,NaN,NaN,NaN
Propranolol,HMDB01849,7.625,3,m,NA,0.3551,1,CC(C)NCC(O)COC1=CC=CC2=CC=CC=C12,InChIKey=AQHHHDLHHXJYJD-UHFFFAOYSA-N,3.16,-4.2,NaN,NaN,NaN,NaN,NaN,NaN,NaN,NaN,NaN,NaN,NaN,NaN
Doxylamine,HMDB01936,7.63,1,dt,8.07 0.96,0.1053,1,CN(C)CCOC(C)(C1=CC=CC=C1)C1=NC=CC=C1,InChIKey=HCFDWZZGGLSKEP-UHFFFAOYSA-N,4.63,8.61,NA,NA,NA,NA,NA,NA,NA,NA,NA,NA,NA,NA
Genistein,HMDB03217,7.635,1,s,NA,0.4178,-1,OC1=CC=C(C=C1)C1=COC2=CC(O)=CC(O)=C2C1=O,InChIKey=TZBJGXHYKVUXJN-UHFFFAOYSA-N,14.58,-3,0.01261,0.23,NaN,NaN,NaN,NaN,NaN,NaN,NaN,NaN,NaN,NaN
Indoleacetic acid,HMDB00197,7.635,1,d,7.83,0.2269,-1,OC(=O)CC1=CNC2=C1C=CC=C2,InChIKey=SEOVTRFCIGRIMH-UHFFFAOYSA-N,7.61,-2.2,0.983333333,5.6,NaN,1.6455,0.029,NaN,NaN,NaN,NaN,NaN,NaN,NaN
Hippuric acid,HMDB00714,7.635,1,tt,7.47 1.52,0.2841,-1,OC(=O)CNC(=O)C1=CC=CC=C1,InChIKey=QIAFMBKCNZACKA-UHFFFAOYSA-N,3.39,-3,9.87,255.32,NaN,NaN,NaN,NaN,NaN,NaN,NaN,NaN,NaN,NaN
Deacetyldiltiazem,HMDB02873,7.635,1,dd,8.16 1.11,0.0554,1,COC1=CC=C(C=C1)[C@@H]1SC2=CC=CC=C2N(CCN(C)C)C(=O)[C@@H]1O,InChIKey=NZHUXMZTSSZXSB-MOPGFXCFSA-N,2.52,-4,NA,NA,NA,NA,NA,NA,NA,NA,NA,NA,NA,NA
4-Methoxycinnamic acid,HMDB02040,7.635,1,d,15.96,0.0738,-1,COC1=CC=C(\C=C\C(O)=O)C=C1,InChIKey=AFDXODALSZRGIH-QPJJXVBHSA-N,12.45,-3.1,NaN,NaN,NaN,NaN,NaN,NaN,NaN,NaN,NaN,NaN,NaN,NaN
Benzaldehyde,HMDB06115,7.635,2,t,7.76,0.6433,0,O=CC1=CC=CC=C1,InChIKey=HUMNYLRZRPPJDN-UHFFFAOYSA-N,0.63,-3.6,NaN,NaN,NaN,NaN,NaN,NaN,NaN,NaN,NaN,NaN,NaN,NaN
Loratadine,HMDB05000,7.635,1,m,NA,0.0261,0,CCOC(=O)N1CCC(CC1)=C1C2=C(CCC3=CC=CN=C13)C=C(Cl)C=C2,InChIKey=JCCNYMKQOSZNPW-UHFFFAOYSA-N,1.87,10,NaN,NaN,NaN,NaN,NaN,NaN,NaN,NaN,NaN,NaN,NaN,NaN
trans-Cinnamic acid,HMDB00930,7.635,2,dt,8.17 0.74,0.6941,-1,OC(=O)\C=C\C1=CC=CC=C1,InChIKey=WBYWAXJHAXSJNI-VOTSOKGWSA-N,1.81,-3.4,NaN,NaN,NaN,NaN,NaN,NaN,NaN,NaN,NaN,NaN,NaN,NaN
Kynurenic acid,HMDB00715,7.644,1,ddd,8.45 6.94 1.37,0.2985,-1,OC(=O)C1=CC(=O)C2=CC=CC=C2N1,InChIKey=HCZHHEIFKROPDY-UHFFFAOYSA-N,1.48,9.57,0.0265,1.34,NaN,NaN,NaN,NaN,NaN,NaN,NaN,NaN,NaN,NaN
Alpha-Hydroxyhippuric acid,HMDB02404,7.645,1,m,NA,0.4561,-1,OC(NC(=O)C1=CC=CC=C1)C(O)=O,InChIKey=GCWCVCCEIQXUQU-UHFFFAOYSA-N,4.17,-6.6,NA,NA,NA,NA,NA,NA,NA,NA,NA,NA,NA,NA
Chalcone,HMDB03066,7.645,1,tt,NA,0.0591,0,O=C(\C=C\C1=CC=CC=C1)C1=CC=CC=C1,InChIKey=DQFBYFPFKXHELB-VAWYXSNFSA-N,1.86,-0.52,NA,NA,NA,NA,NA,NA,NA,NA,NA,NA,NA,NA
Lansoprazole,HMDB05008,7.645,2,dd,NA,0.049,0,CC1=C(OCC(F)(F)F)C=CN=C1CS(=O)C1=NC2=CC=CC=C2N1,InChIKey=MJIHNNLFOKEZEW-UHFFFAOYSA-N,1.87,10,NA,NA,NA,NA,NA,NA,NA,NA,NA,NA,NA,NA
Pyridoxamine,HMDB01431,7.646,23,s,NA,0.4318,1,CC1=C(O)C(CN)=C(CO)C=N1,InChIKey=NHZMQXZHNVQTQA-UHFFFAOYSA-N,3.73,10.21,NaN,NaN,NaN,NaN,NaN,NaN,NaN,NaN,NaN,NaN,NaN,NaN
Thymidine,HMDB00273,7.649,1,s,NA,0.2774,0,CC1=CN([C@H]2C[C@H](O)[C@@H](CO)O2)C(=O)NC1=O,InChIKey=IQFYYKKMVGJFEH-XLPZGREQSA-N,18.3,-5.5,0.205,6.87,NaN,NaN,NaN,NaN,NaN,NaN,NaN,NaN,NaN,NaN
Flavin Mononucleotide,HMDB01520,7.655,5,s,NA,0.063,-3,CC1=CC2=C(C=C1C)N(C[C@H](O)[C@H](O)[C@H](O)COP(O)(O)=O)C1=NC(=O)NC(=O)C1=N2,InChIKey=FVTCRASFADXXNN-SCRDCRAPSA-N,0.83,-3.6,0.0075,NaN,NaN,NaN,NaN,NaN,NaN,NaN,NaN,NaN,NaN,NaN
Indoleacrylic acid,HMDB00734,7.655,1,s,NA,0.2195,-1,OC(=O)\C=C\C1=CC2=C(N1)C=CC=C2,InChIKey=SXOUIMVOMIGLHO-AATRIKPKSA-N,4.15,8.86,NA,NA,NA,NA,NA,NA,NA,NA,NA,NA,NA,NA
Pteroyltriglutamic acid,HMDB01902,7.655,2,m,NA,0.1153,-4,NC1=NC(=O)C2=NC(CNC3=CC=C(C=C3)C(=O)NC(CCC(=O)NC(CCC(=O)NC(CCC(O)=O)C(O)=O)C(O)=O)C(O)=O)=CN=C2N1,InChIKey=WOLQREOUPKZMEX-UHFFFAOYSA-N,13.42,-0.26,NA,NA,NA,NA,NA,NA,NA,NA,NA,NA,NA,NA
Tryptophanol,HMDB03447,7.655,1,d,NA,0.1227,0,OCCC1=CNC2=CC=CC=C12,InChIKey=MBBOMCVGYCRMEA-UHFFFAOYSA-N,14.58,-3,NA,NA,NA,NA,NA,NA,NA,NA,NA,NA,NA,NA
Berberine,HMDB03409,7.655,1,s,NA,0.1842,1,COC1=C(OC)C2=C[N+]3=C(C=C2C=C1)C1=CC2=C(OCO2)C=C1CC3,InChIKey=YBHILYKTIRIUTE-UHFFFAOYSA-N,14.58,-3,NaN,NaN,NaN,NaN,NaN,NaN,NaN,NaN,NaN,NaN,NaN,NaN
Aminopterin,HMDB01833,7.657,2,d,8.69,0.8549,-2,NC1=NC2=C(N=C(CNC3=CC=C(C=C3)C(=O)NC(CCC(O)=O)C(O)=O)C=N2)C(N)=N1,InChIKey=TVZGACDUOSZQKY-UHFFFAOYSA-N,9.51,-3.5,NA,NA,NA,NA,NA,NA,NA,NA,NA,NA,NA,NA
Pyridoxine,HMDB00239,7.665,3,s,NA,0.4839,0,CC1=NC=C(CO)C(CO)=C1O,InChIKey=LXNHXLLTXMVWPM-UHFFFAOYSA-N,-2.1,-1.9,0.025,NA,NaN,NaN,NaN,NaN,NaN,NaN,NaN,NaN,NaN,NaN
Citalopram,HMDB05038,7.665,3,m,NA,0.0164,1,CN(C)CCCC1(OCC2=C1C=CC(=C2)C#N)C1=CC=C(F)C=C1,InChIKey=WSEQXVZVJXJVFP-UHFFFAOYSA-N,1.87,10,NA,NA,NA,NA,NA,NA,NA,NA,NA,NA,NA,NA
Indole-3-carbinol,HMDB05785,7.665,1,d,NA,0.0608,0,OCC1=CNC2=CC=CC=C12,InChIKey=IVYPNXXAYMYVSP-UHFFFAOYSA-N,1.87,10,NA,NA,NA,NA,NA,NA,NA,NA,NA,NA,NA,NA
Chlorogenic acid,HMDB03164,7.665,1,d,15.99,0.2054,-1,O[C@@H]1C[C@](O)(C[C@@H](OC(=O)\C=C\C2=CC(O)=C(O)C=C2)[C@@H]1O)C(O)=O,InChIKey=CWVRJTMFETXNAD-JUHZACGLSA-N,14.58,-3,NaN,NaN,NaN,NaN,NaN,NaN,NaN,NaN,NaN,NaN,NaN,NaN
Guanine,HMDB00132,7.665,1,s,NA,0.2261,0,NC1=NC(=O)C2=C(N1)N=CN2,InChIKey=UYTPUPDQBNUYGX-UHFFFAOYSA-N,4.09,-2.8,NaN,0.285,NaN,NaN,NaN,NaN,NaN,NaN,NaN,NaN,NaN,NaN
Pseudouridine,HMDB00767,7.675,2,s,NA,0.9296,0,OC[C@H]1O[C@H]([C@H](O)[C@@H]1O)C1=CNC(=O)NC1=O,InChIKey=PTJWIQPHWPFNBW-GBNDHIKLSA-N,1.08,-3.6,3.18,17.15566667,NaN,NaN,NaN,NaN,NaN,NaN,NaN,NaN,NaN,NaN
3-Methylindole,HMDB00466,7.677,1,d,7.77,0.0756,0,CC1=CNC2=C1C=CC=C2,InChIKey=ZFRKQXVRDFCRJG-UHFFFAOYSA-N,2.76,-0.88,NaN,NaN,NaN,NaN,NaN,NaN,NaN,NaN,NaN,NaN,NaN,NaN
4-Aminohippuric acid,HMDB01867,7.68,2,d,8.68,0.8122,-1,NC1=CC=C(C=C1)C(=O)NCC(O)=O,InChIKey=HSMNQINEKMPTIC-UHFFFAOYSA-N,1.16,4.95,18,0.3,NaN,NaN,NaN,NaN,NaN,NaN,NaN,NaN,NaN,NaN
1-Methylhistidine,HMDB00001,7.685,1,s,NA,0.223,0,CN1C=NC(C[C@H](N)C(O)=O)=C1,InChIKey=BRMWTNUJHUMWMS-LURJTMIESA-N,1.86,-3,13.1,23.87,NaN,26.34,4,NaN,NaN,NaN,NaN,NaN,NaN,NaN
Cinnamaldehyde,HMDB03441,7.685,3,m,NA,0.0587,0,O=C\C=C\C1=CC=CC=C1,InChIKey=KJPRLNWUNMBNBZ-QPJJXVBHSA-N,14.58,-3,NaN,NaN,NaN,NaN,NaN,NaN,NaN,NaN,NaN,NaN,NaN,NaN
Naproxen,HMDB01923,7.685,1,br. s.,NA,0.0546,-1,COC1=CC2=C(C=C1)C=C(C=C2)[C@H](C)C(O)=O,InChIKey=CMWTZPSULFXXJA-VIFPVBQESA-N,0.87,-0.34,NaN,NaN,NaN,NaN,NaN,NaN,NaN,NaN,NaN,NaN,NaN,NaN
Ribothymidine,HMDB00884,7.693,1,s,NA,0.2804,0,CC1=CN([C@@H]2O[C@H](CO)[C@@H](O)[C@H]2O)C(=O)NC1=O,InChIKey=DWRXFEITVBNRMK-JXOAFFINSA-N,0.83,9.06,NaN,NaN,NaN,NaN,NaN,NaN,NaN,NaN,NaN,NaN,NaN,NaN
5-Methylcytidine,HMDB00982,7.695,1,br. s.,NA,0.2892,0,CC1=CN([C@@H]2O[C@H](CO)[C@@H](O)[C@H]2O)C(=O)N=C1N,InChIKey=ZAYHVCMSTBRABG-JXOAFFINSA-N,4.13,5.53,NaN,NaN,NaN,NaN,NaN,NaN,NaN,NaN,NaN,NaN,NaN,NaN
Pyridine,HMDB00926,7.695,1,td,NA,0.5121,0,C1=CC=NC=C1,InChIKey=JUJWROOIHBZHMG-UHFFFAOYSA-N,0.82,-3,NaN,NaN,NaN,NaN,NaN,NaN,NaN,NaN,NaN,NaN,NaN,NaN
Quercetin,HMDB05794,7.699,1,d,2.02,0.9261,-1,OC1=CC(O)=C2C(OC(=C(O)C2=O)C2=CC(O)=C(O)C=C2)=C1,InChIKey=REFJWTPEDVJJIY-UHFFFAOYSA-N,1.87,10,0.045,0.0065,NaN,NaN,NaN,NaN,NaN,NaN,NaN,NaN,NaN,NaN
Quinaldic acid,HMDB00842,7.7,1,ddd,8.09 6.99 1.03,0.7427,-1,OC(=O)C1=NC2=CC=CC=C2C=C1,InChIKey=LOAUVZALPPNFOQ-UHFFFAOYSA-N,1.91,-7.2,NA,NA,NA,NA,NA,NA,NA,NA,NA,NA,NA,NA
Deacetyldiltiazem,HMDB02873,7.701,1,td,7.57 1.47,0.039,1,COC1=CC=C(C=C1)[C@@H]1SC2=CC=CC=C2N(CCN(C)C)C(=O)[C@@H]1O,InChIKey=NZHUXMZTSSZXSB-MOPGFXCFSA-N,2.52,-4,NA,NA,NA,NA,NA,NA,NA,NA,NA,NA,NA,NA