Metabolite,HMDB Name,Shift (ppm),Hs,Type,J (Hz),Height,Physiological Charge,SMILES,InChlKey,pKa (Strongest Acidic),pKa (Strongest Basic),Blood,Urine,Feces,Saliva,Cerebrospinal Fluid (CSF),Amniotic Fluid,Aqueous Humour,Ascites Fluid,Breast Milk,Lymph,Sweat,Tears
Lipoamide,HMDB00962,2.275,1,m,NA,0.1584,0,NC(=O)CCCCC1CCSS1,InChIKey=FCCDDURTIIUXBY-UHFFFAOYSA-N,1.87,-4.7,NaN,NaN,NaN,NaN,NaN,NaN,NaN,NaN,NaN,NaN,NaN,NaN
L-Valine,HMDB00883,2.276,1,m,14.03 7.01 4.41,0.0941,0,CC(C)[C@H](N)C(O)=O,InChIKey=KZSNJWFQEVHDMF-BYPYZUCNSA-N,1.4,9.51,237.2,NA,NaN,NA,18,NaN,NaN,NaN,NaN,NaN,NaN,NaN
Isovalerylcarnitine,HMDB00688,2.285,2,m,NA,0.0525,0,CC(C)CC(=O)OC(CC([O-])=O)C[N+](C)(C)C,InChIKey=IGQBPDJNUXPEMT-UHFFFAOYSA-N,11.6,9.4,0.138,NaN,NaN,0.073,NaN,NaN,NaN,NaN,NaN,NaN,NaN,NaN
Lithocholic acid,HMDB00761,2.285,3,m,NA,0.0498,-1,[H][C@@]12CC[C@H]([C@H](C)CCC(O)=O)[C@@]1(C)CC[C@@]1([H])[C@@]2([H])CCC2C[C@H](O)CC[C@]12C,InChIKey=SMEROWZSTRWXGI-YPLGJCPNSA-N,1.77,-1.8,0.33,NaN,NaN,NaN,NaN,NaN,NaN,NaN,NaN,NaN,NaN,NaN
Erucic acid,HMDB02068,2.285,2,t,7.43,0.1794,-1,CCCCCCCC\C=C/CCCCCCCCCCCC(O)=O,InChIKey=DPUOLQHDNGRHBS-KTKRTIGZSA-N,1.46,-6.1,0.646,NaN,NaN,NaN,NaN,NaN,NaN,NaN,NaN,NaN,NaN,NaN
DL-Homocystine,HMDB00575,2.285,3,m,NA,0.0845,0,NC(CCSSCCC(N)C(O)=O)C(O)=O,InChIKey=ZTVZLYBCZNMWCF-UHFFFAOYSA-N,1.87,0.033,9.8,0.21,NaN,NaN,NaN,NaN,NaN,NaN,NaN,NaN,NaN,NaN
Acetoacetic acid,HMDB00060,2.285,3,s,NA,1,-1,CC(=O)CC(O)=O,InChIKey=WDJHALXBUFZDSR-UHFFFAOYSA-N,1.88,-4.2,30.8,NaN,NaN,10.7,19.1,NaN,NaN,NaN,NaN,NaN,NaN,NaN
CE(16:0),HMDB00885,2.285,2,t,7.49,0.0824,0,[H][C@@]1(CC[C@@]2([H])[C@]3([H])CC=C4C[C@H](CC[C@]4(C)[C@@]3([H])CC[C@]12C)OC(=O)CCCCCCCCCCCCCCC)[C@H](C)CCCC(C)C,InChIKey=BBJQPKLGPMQWBU-JADYGXMDSA-N,1.87,10,297.73,NaN,NaN,NaN,NaN,NaN,NaN,NaN,NaN,NaN,NaN,NaN
Cholesterol,HMDB00067,2.285,4,m,NA,0.0806,0,[H][C@@]12CC[C@H]([C@H](C)CCCC(C)C)[C@@]1(C)CC[C@@]1([H])[C@@]2([H])CC=C2CC(O)CC[C@]12C,InChIKey=HVYWMOMLDIMFJA-FNOPAARDSA-N,3.17,-0.54,3567.92,NaN,NaN,NA,6.31,NaN,NaN,NaN,NaN,NaN,NaN,NaN
16-Dehydroprogesterone,HMDB00995,2.285,1,s,NA,1,0,[H][C@@]12CC=C(C(C)=O)[C@@]1(C)CC[C@@]1([H])[C@@]2([H])CCC2=CC(=O)CC[C@]12C,InChIKey=VRRHHTISESGZFN-RKFFNLMFSA-N,2.52,-0.94,NA,NA,NA,NA,NA,NA,NA,NA,NA,NA,NA,NA
Thymidine 3'.5'-cyclic monophosphate,HMDB01570,2.285,1,m,NA,0.0541,-1,CC1=CN([C@H]2CC3OP(O)(=O)OCC3O2)C(=O)NC1=O,InChIKey=QSJFDOVQWZVUQG-KAVNDROISA-N,4.82,-1.5,NA,NA,NA,NA,NA,NA,NA,NA,NA,NA,NA,NA
3-Hydroxysebacic acid,HMDB00350,2.285,2,t,NA,0.0722,-2,OC(CCCCCCC(O)=O)CC(O)=O,InChIKey=OQYZCCKCJQWHIE-UHFFFAOYSA-N,19.09,-4.9,NaN,NaN,NaN,NaN,NaN,NaN,NaN,NaN,NaN,NaN,NaN,NaN
All-trans-retinoic acid,HMDB01852,2.285,1,s,NA,0.5208,-1,C\C(\C=C\C1=C(C)CCCC1(C)C)=C/C=C/C(/C)=C/C(O)=O,InChIKey=SHGAZHPCJJPHSC-YCNIQYBTSA-N,10.09,5.81,NaN,NaN,NaN,NaN,NaN,NaN,NaN,NaN,NaN,NaN,NaN,NaN
CE(18:2(9Z.12Z)),HMDB00610,2.285,2,t,7.53,0.2997,0,CCCCC\C=C/C\C=C/CCCCCCCC(=O)O[C@H]1CC[C@@]2(C)C(=CC[C@@]3([H])[C@]4([H])CC[C@]([H])([C@H](C)CCCC(C)C)[C@@]4(C)CC[C@]23[H])C1,InChIKey=NAACPBBQTFFYQB-LJAITQKLSA-N,1.87,10,NaN,NaN,NaN,NaN,NaN,NaN,NaN,NaN,NaN,NaN,NaN,NaN
Ergocalciferol,HMDB00900,2.285,1,dd,NA,0.0047,0,CC(C)[C@@H](C)\C=C\[C@@H](C)[C@H]1CC[C@@]2([H])\C(CCC[C@]12C)=C\C=C1\C[C@@H](O)CCC1=C,InChIKey=MECHNRXZTMCUDQ-RKHKHRCZSA-N,3.25,-6.3,NaN,NaN,NaN,0.008,NaN,NaN,NaN,NaN,NaN,NaN,NaN,NaN
PA(16:0/16:0),HMDB00674,2.285,4,m,NA,0.0129,-2,CCCCCCCCCCCCCCCC(=O)OC[C@H](COP(O)(O)=O)OC(=O)CCCCCCCCCCCCCCC,InChIKey=PORPENFLTBBHSG-MGBGTMOVSA-N,2.56,10.29,NaN,NaN,NaN,NaN,NaN,NaN,NaN,NaN,NaN,NaN,NaN,NaN
Gamma-Aminobutyric acid,HMDB00112,2.295,2,t,7.36,1,0,NCCCC(O)=O,InChIKey=BTCSSZJGUNDROE-UHFFFAOYSA-N,2.79,-3.6,0.11,NA,NaN,NA,0.22075,NaN,NaN,NaN,NaN,NaN,NaN,NaN
Hexacosanoic acid,HMDB02356,2.295,2,br. s.,NA,0.0757,-1,CCCCCCCCCCCCCCCCCCCCCCCCCC(O)=O,InChIKey=XMHIUKTWLZUKEX-UHFFFAOYSA-N,12.18,10,0.47,NaN,NaN,NaN,NaN,NaN,NaN,NaN,NaN,NaN,NaN,NaN
Beta-Sitosterol,HMDB00852,2.295,1,ddd,NA,0.0044,0,[H][C@@]1(CC[C@@]2([H])[C@]3([H])CC=C4C[C@@H](O)CC[C@]4(C)[C@@]3([H])CC[C@]12C)[C@H](C)CC[C@@H](CC)C(C)C,InChIKey=KZJWDPNRJALLNS-VJSFXXLFSA-N,-33,-2,9.744,NaN,NaN,NaN,NaN,NaN,NaN,NaN,NaN,NaN,NaN,NaN
Anatabine,HMDB04476,2.295,2,m,7.25 3.62 1.88,0.1238,1,C1N[C@@H](CC=C1)C1=CN=CC=C1,InChIKey=SOPPBXUYQGUQHE-JTQLQIEISA-N,1.86,-6.7,NA,NA,NA,NA,NA,NA,NA,NA,NA,NA,NA,NA
Capryloylglycine,HMDB00832,2.295,2,t,NA,0.648,-1,CCCCCCCC(=O)NCC(O)=O,InChIKey=SAVLIIGUQOSOEP-UHFFFAOYSA-N,3.15,4.95,NA,NA,NA,NA,NA,NA,NA,NA,NA,NA,NA,NA
Medroxyprogesterone,HMDB01939,2.295,3,s,NA,0.3156,0,[H][C@@]12CC[C@](O)(C(C)=O)[C@@]1(C)CC[C@@]1([H])[C@@]2([H])C[C@H](C)C2=CC(=O)CC[C@]12C,InChIKey=FRQMUZJSZHZSGN-HBNHAYAOSA-N,4.94,1.15,NA,NA,NA,NA,NA,NA,NA,NA,NA,NA,NA,NA
16a-Hydroxyestrone,HMDB00335,2.295,1,m,NA,0.0145,0,[H][C@@]12C[C@@H](O)C(=O)[C@@]1(C)CC[C@]1([H])C3=C(CC[C@@]21[H])C=C(O)C=C3,InChIKey=WPOCIZJTELRQMF-QFXBJFAPSA-N,4.48,9.66,NaN,NaN,NaN,NaN,NaN,NaN,NaN,NaN,NaN,NaN,NaN,NaN
Androstanedione,HMDB00899,2.295,1,d,14.37,0.1383,0,[H][C@@]12CCC(=O)[C@@]1(C)CC[C@@]1([H])[C@@]2([H])CC[C@@]2([H])CC(=O)CC[C@]12C,InChIKey=RAJWOBJTTGJROA-WZNAKSSCSA-N,1.86,-3,NaN,NaN,NaN,NaN,NaN,NaN,NaN,NaN,NaN,NaN,NaN,NaN
Methyl propenyl ketone,HMDB01184,2.295,2,s,NA,1,0,C\C=C\C(C)=O,InChIKey=LABTWGUMFABVFG-ONEGZZNKSA-N,11.5,9.43,NaN,NaN,NaN,NaN,NaN,NaN,NaN,NaN,NaN,NaN,NaN,NaN
N-Butyrylglycine,HMDB00808,2.295,1,t,7.34,0.7551,-1,CCCC(=O)NCC(O)=O,InChIKey=WPSSBBPLVMTKRN-UHFFFAOYSA-N,1.23,4.77,NaN,NaN,NaN,NaN,NaN,NaN,NaN,NaN,NaN,NaN,NaN,NaN
Nutriacholic acid,HMDB00467,2.295,3,m,NA,0.0772,-1,[H][C@@]12CCC([C@@H](C)CCC(O)=O)[C@@]1(C)CC[C@@]1([H])[C@@]2([H])C(=O)C[C@]2([H])C[C@H](O)CC[C@]12C,InChIKey=DXOCDBGWDZAYRQ-QPVZPPSOSA-N,3.78,-0.78,NaN,NaN,NaN,NaN,NaN,NaN,NaN,NaN,NaN,NaN,NaN,NaN
Perillic acid,HMDB04586,2.295,2,m,NA,0.0596,-1,CC(=C)C1CCC(=CC1)C(O)=O,InChIKey=CDSMSBUVCWHORP-UHFFFAOYSA-N,1.89,-6.6,NaN,NaN,NaN,NaN,NaN,NaN,NaN,NaN,NaN,NaN,NaN,NaN
Stigmasterol,HMDB00937,2.295,1,m,NA,0.1179,0,CC[C@H](\C=C\[C@@H](C)[C@@]1([H])CC[C@@]2([H])[C@]3([H])CC=C4C[C@@H](O)CC[C@]4(C)[C@@]3([H])CC[C@]12C)C(C)C,InChIKey=HCXVJBMSMIARIN-PHZDYDNGSA-N,16.3,5.29,NaN,NaN,NaN,NaN,NaN,NaN,NaN,NaN,NaN,NaN,NaN,NaN
Progesterone,HMDB01830,2.305,1,m,NA,0.0767,0,[H][C@@]12CC[C@H](C(C)=O)[C@@]1(C)CC[C@@]1([H])[C@@]2([H])CCC2=CC(=O)CC[C@]12C,InChIKey=RJKFOVLPORLFTN-LEKSSAKUSA-N,11.17,-6.2,0.0025,NaN,NaN,NaN,NaN,NaN,NaN,NaN,NaN,NaN,NaN,NaN
Vitamin D3,HMDB00876,2.305,1,dd,13.01 7.51,0.017,0,CC(C)CCC[C@@H](C)[C@H]1CCC2\C(CCC[C@]12C)=C\C=C1\C[C@@H](O)CCC1=C,InChIKey=QYSXJUFSXHHAJI-QWSSABAFSA-N,1.1,-3.6,0.03705,NaN,NaN,0.006,NaN,NaN,NaN,NaN,NaN,NaN,NaN,NaN
2-Pyrrolidinone,HMDB02039,2.305,1,t,8.09,0.9058,0,O=C1CCCN1,InChIKey=HNJBEVLQSNELDL-UHFFFAOYSA-N,19.4,-4.2,0.0975,NaN,NaN,NaN,NaN,NaN,NaN,NaN,NaN,NaN,NaN,NaN
5alpha-Cholestanone,HMDB00871,2.305,2,m,NA,0.1678,0,[H][C@@]1(CC[C@@]2([H])[C@]3([H])CC[C@@]4([H])CC(=O)CC[C@]4(C)[C@@]3([H])CC[C@]12C)[C@H](C)CCCC(C)C,InChIKey=PESKGJQREUXSRR-UXIWKSIVSA-N,1.78,4.8,NA,NA,NA,NA,NA,NA,NA,NA,NA,NA,NA,NA
5-Hydroxymethyl-4-methyluracil,HMDB00544,2.305,1,s,NA,1,0,CC1=C(CO)C(=O)NC(=O)N1,InChIKey=XBAVGYMDOXCWQU-UHFFFAOYSA-N,4,8.9,NA,NA,NA,NA,NA,NA,NA,NA,NA,NA,NA,NA
Amlodipine,HMDB05018,2.305,3,s,NA,0.7987,1,CCOC(=O)C1=C(COCCN)NC(C)=C(C1C1=CC=CC=C1Cl)C(=O)OC,InChIKey=HTIQEAQVCYTUBX-UHFFFAOYSA-N,1.87,10,NA,NA,NA,NA,NA,NA,NA,NA,NA,NA,NA,NA
Canrenone,HMDB03033,2.305,3,m,NA,0.037,0,[H][C@@]12CC[C@@]3(CCC(=O)O3)[C@@]1(C)CC[C@@]1([H])[C@@]2([H])C=CC2=CC(=O)CC[C@]12C,InChIKey=UJVLDDZCTMKXJK-WNHSNXHDSA-N,6.68,-0.81,NA,NA,NA,NA,NA,NA,NA,NA,NA,NA,NA,NA
Glutarylglycine,HMDB00590,2.305,2,t,NA,0.3785,-2,OC(=O)CCCC(=O)NCC(O)=O,InChIKey=NBLKTRLPZFCMJG-UHFFFAOYSA-N,3.72,-0.38,NA,NA,NA,NA,NA,NA,NA,NA,NA,NA,NA,NA
Octacosanoic acid,HMDB02348,2.305,2,t,NA,0.0014,-1,CCCCCCCCCCCCCCCCCCCCCCCCCCCC(O)=O,InChIKey=UTOPWMOLSKOLTQ-UHFFFAOYSA-N,12.18,10,NA,NA,NA,NA,NA,NA,NA,NA,NA,NA,NA,NA
CE(16:1(9Z)),HMDB00658,2.305,2,m,NA,0.0416,0,CCCCCC\C=C/CCCCCCCC(=O)OC1CC[C@@]2(C)C(=CCC3C4CC[C@H]([C@H](C)CCCC(C)C)[C@@]4(C)CCC23)C1,InChIKey=HODJWNWCVNUPAQ-FSAOOAOSSA-N,1.87,10,NaN,NaN,NaN,NaN,NaN,NaN,NaN,NaN,NaN,NaN,NaN,NaN
Epitestosterone,HMDB00628,2.305,1,m,NA,0.0304,0,[H][C@@]12CC[C@@H](O)[C@@]1(C)CC[C@@]1([H])[C@@]2([H])CCC2=CC(=O)CC[C@]12C,InChIKey=MUMGGOZAMZWBJJ-KZYORJDKSA-N,3.89,4.89,NaN,NaN,NaN,NaN,NaN,NaN,NaN,NaN,NaN,NaN,NaN,NaN
Loperamide,HMDB04999,2.305,3,s,NA,0.9332,1,CN(C)C(=O)C(CCN1CCC(O)(CC1)C1=CC=C(Cl)C=C1)(C1=CC=CC=C1)C1=CC=CC=C1,InChIKey=RDOIQAHITMMDAJ-UHFFFAOYSA-N,1.87,10,NaN,NaN,NaN,NaN,NaN,NaN,NaN,NaN,NaN,NaN,NaN,NaN
m-Cresol,HMDB02048,2.305,3,s,NA,1,0,CC1=CC(O)=CC=C1,InChIKey=RLSSMJSEOOYNOY-UHFFFAOYSA-N,8.76,-1.6,NaN,0.13,NaN,NaN,NaN,NaN,NaN,NaN,NaN,NaN,NaN,NaN
Oenanthic ether,HMDB00798,2.305,2,t,7.46,0.3566,0,CCCCCCC(=O)OCC,InChIKey=TVQGDYNRXLTQAP-UHFFFAOYSA-N,12.45,1.31,NaN,NaN,NaN,NaN,NaN,NaN,NaN,NaN,NaN,NaN,NaN,NaN
Suberylglycine,HMDB00953,2.305,2,t,7.53,0.8482,-2,OC(=O)CCCCCCC(=O)NCC(O)=O,InChIKey=HXATVKDSYDWTCX-UHFFFAOYSA-N,3.23,4.58,NaN,NaN,NaN,NaN,NaN,NaN,NaN,NaN,NaN,NaN,NaN,NaN
Aminopterin,HMDB01833,2.31,2,ddd,8.51 6.79 4.32,0.331,-2,NC1=NC2=C(N=C(CNC3=CC=C(C=C3)C(=O)NC(CCC(O)=O)C(O)=O)C=N2)C(N)=N1,InChIKey=TVZGACDUOSZQKY-UHFFFAOYSA-N,9.51,-3.5,NA,NA,NA,NA,NA,NA,NA,NA,NA,NA,NA,NA
Corticosterone,HMDB01547,2.315,1,m,NA,0.0168,0,[H][C@@]12CC[C@H](C(=O)CO)[C@@]1(C)C[C@H](O)[C@@]1([H])[C@@]2([H])CCC2=CC(=O)CC[C@]12C,InChIKey=OMFXVFTZEKFJBZ-HJTSIMOOSA-N,2.79,-0.13,0.027,NaN,NaN,NaN,NaN,NaN,NaN,NaN,NaN,NaN,NaN,NaN
L(-)-Nicotine pestanal,HMDB01934,2.315,2,m,NA,0.1012,1,CN1CCC[C@H]1C1=CN=CC=C1,InChIKey=SNICXCGAKADSCV-JTQLQIEISA-N,1.87,10,0.745,NaN,NaN,NaN,NaN,NaN,NaN,NaN,NaN,NaN,NaN,NaN
7-Dehydrocholesterol,HMDB00032,2.315,2,m,NA,0.0602,0,[H][C@@]12CC[C@H]([C@H](C)CCCC(C)C)[C@@]1(C)CC[C@@]1([H])C2=CC=C2C[C@@H](O)CC[C@]12C,InChIKey=UCTLRSWJYQTBFZ-DDPQNLDTSA-N,11.25,4.99,5,0.029,NaN,NaN,0,NaN,NaN,NaN,NaN,NaN,NaN,NaN
Hydroxycobalamin,HMDB02308,2.315,1,m,NA,0.038,2,[Co++].O.OC[C@H]1O[C@@]([H])([C@H](O)[C@]1([H])OP(=O)([O-])O[C@H](C)CNC(=O)CC[C@]1(C)[C@@H](CC(=O)N)[C@@]2([H])[N-]\C1=C(C)/C1=N/C(=C\C3=N\C(=C(C)/C4=N[C@]2(C)[C@@](C)(CC(=O)N)[C@@H]4CCC(=O)N)\[C@@](C)(CC(=O)N)[C@@H]3CCC(=O)N)/C(C)(C)[C@@H]1CCC(=O)N)N1C=NC2=C1C=C(C)C(C)=C2,InChIKey=DQOCFCZRZOAIBN-WZHZPDAFSA-L,2.45,-1.9,NA,NA,NA,NA,NA,NA,NA,NA,NA,NA,NA,NA
Methylacetoacetic acid,HMDB00310,2.315,3,s,NA,0.67,0,COC(=O)CC(C)=O,InChIKey=WRQNANDWMGAFTP-UHFFFAOYSA-N,4.14,-0.16,NA,NA,NA,NA,NA,NA,NA,NA,NA,NA,NA,NA
TG(10:0/10:0/10:0)[iso],HMDB00548,2.315,4,t,7.61,0.1969,0,CCCCCCCCCC(=O)OCC(COC(=O)CCCCCCCCC)OC(=O)CCCCCCCCC,InChIKey=LADGBHLMCUINGV-UHFFFAOYSA-N,4.99,5.15,NA,NA,NA,NA,NA,NA,NA,NA,NA,NA,NA,NA
TG(16:0/16:0/16:0)[iso],HMDB05356,2.315,6,m,NA,0.0795,0,CCCCCCCCCCCCCCCC(=O)OCC(COC(=O)CCCCCCCCCCCCCCC)OC(=O)CCCCCCCCCCCCCCC,InChIKey=PVNIQBQSYATKKL-UHFFFAOYSA-N,1.87,10,NA,NA,NA,NA,NA,NA,NA,NA,NA,NA,NA,NA
Valerylglycine,HMDB00927,2.315,2,t,7.5,0.643,-1,CCCCC(=O)NCC(O)=O,InChIKey=NYZBWOSRZJKQAI-UHFFFAOYSA-N,1.48,4.95,NA,NA,NA,NA,NA,NA,NA,NA,NA,NA,NA,NA
Ethylmethylacetic acid,HMDB02176,2.315,1,m,NA,0.1596,-1,CCC(C)C(O)=O,InChIKey=WLAMNBDJUVNPJU-UHFFFAOYSA-N,4.82,-3.7,NaN,NaN,NaN,8.04,NaN,NaN,NaN,NaN,NaN,NaN,NaN,NaN
Propionylglycine,HMDB00783,2.315,24,q,7.66,0.5393,-1,CCC(=O)NCC(O)=O,InChIKey=WOMAZEJKVZLLFE-UHFFFAOYSA-N,1.77,-3.5,NaN,NaN,NaN,NaN,NaN,NaN,NaN,NaN,NaN,NaN,NaN,NaN
4-Pyridoxic acid,HMDB00017,2.325,79,s,NA,1,-1,CC1=NC=C(CO)C(C(O)=O)=C1O,InChIKey=HXACOUQIXZGNBF-UHFFFAOYSA-N,4.23,0.025,0.0335,NaN,NaN,NaN,NaN,NaN,NaN,NaN,NaN,NaN,NaN,NaN
3-Methylphenylacetic acid,HMDB02222,2.325,3,s,NA,1,-1,CC1=CC(CC(O)=O)=CC=C1,InChIKey=GJMPSRSMBJLKKB-UHFFFAOYSA-N,11.92,0.019,NA,NA,NA,NA,NA,NA,NA,NA,NA,NA,NA,NA
cis-4-Octenedioic acid,HMDB04982,2.325,4,q,NA,0.5726,-2,OC(=O)CC\C=C/CCC(O)=O,InChIKey=LQVYKEXVMZXOAH-UPHRSURJSA-N,1.87,10,NaN,NaN,NaN,NaN,NaN,NaN,NaN,NaN,NaN,NaN,NaN,NaN
Deoxycorticosterone,HMDB00016,2.325,1,dd,4.00 2.40,0.0762,0,[H][C@@]12CC[C@H](C(=O)CO)[C@@]1(C)CC[C@@]1([H])[C@@]2([H])CCC2=CC(=O)CC[C@]12C,InChIKey=ZESRJSPZRDMNHY-YFWFAHHUSA-N,-1.9,-2.7,NaN,NaN,NaN,NaN,NaN,NaN,NaN,NaN,NaN,NaN,NaN,NaN
Methionine sulfoxide,HMDB02005,2.325,1,m,NA,0.1637,0,CS(=O)CCC(N)C(O)=O,InChIKey=QEFRNWWLZKMPFJ-UHFFFAOYSA-N,0.83,9.31,NaN,NA,NaN,3.28,NaN,NaN,NaN,NaN,NaN,NaN,NaN,NaN
Taurodeoxycholic acid,HMDB00896,2.325,1,t,10.28,0.1254,-1,[H][C@@]1(CC[C@@]2([H])[C@]3([H])CC[C@]4([H])C[C@H](O)CC[C@]4(C)[C@@]3([H])C[C@H](O)[C@]12C)[C@H](C)CCC(=O)NCCS(O)(=O)=O,InChIKey=AWDRATDZQPNJFN-VAYUFCLWSA-N,1.86,-6.7,NaN,NaN,NaN,NaN,NaN,NaN,NaN,NaN,NaN,NaN,NaN,NaN
3-Hydroxybutyric acid,HMDB00357,2.329,14,m,NA,NA,-1,CC(O)CC(O)=O,InChIKey=WHBMMWSBFZVSSR-UHFFFAOYSA-N,18.3,-2.8,73.81666667,0.906666667,NaN,3.88,43.46666667,NaN,NaN,NaN,NaN,NaN,NaN,NaN
3-Methylindole,HMDB00466,2.333,3,d,1.02,0.6724,0,CC1=CNC2=C1C=CC=C2,InChIKey=ZFRKQXVRDFCRJG-UHFFFAOYSA-N,2.76,-0.88,NaN,NaN,NaN,NaN,NaN,NaN,NaN,NaN,NaN,NaN,NaN,NaN
Dehydroepiandrosterone,HMDB00077,2.335,4,m,NA,0.0801,0,C[C@]12CCC3C(CC=C4C[C@@H](O)CC[C@]34C)C1CCC2=O,InChIKey=FMGSKLZLMKYGDP-INNQQZFDSA-N,1.49,9.22,0.023,0.0658,NaN,0.0033,NaN,NaN,NaN,NaN,NaN,NaN,NaN,NaN
Stearoylcarnitine,HMDB00848,2.335,2,m,NA,0.0143,0,CCCCCCCCCCCCCCCCCC(=O)OC(CC([O-])=O)C[N+](C)(C)C,InChIKey=FNPHNLNTJNMAEE-UHFFFAOYSA-N,0.83,5,0.06,NaN,NaN,NaN,NaN,NaN,NaN,NaN,NaN,NaN,NaN,NaN
FAD,HMDB01248,2.335,3,s,NA,1,-3,CC1=CC2=C(C=C1C)N(C[C@H](O)[C@H](O)[C@H](O)COP(O)(=O)OP(O)(=O)OC[C@H]1O[C@H]([C@H](O)[C@@H]1O)N1C=NC3=C1N=CN=C3N)C1=NC(=O)NC(=O)C1=N2,InChIKey=VWWQXMAJTJZDQX-UYBVJOGSSA-N,10.59,-2.6,0.075,NaN,NaN,NaN,NaN,NaN,NaN,NaN,NaN,NaN,NaN,NaN
Pregnenolone sulfate,HMDB00774,2.335,1,m,NA,0.0041,-1,[H][C@@]12CC[C@H](C(C)=O)[C@@]1(C)CC[C@@]1([H])[C@@]2([H])CC=C2CC(CC[C@]12C)OS(O)(=O)=O,InChIKey=DIJBBUIOWGGQOP-OZIWPBGVSA-N,-0.99,5.01,0.13,NaN,NaN,NaN,NaN,NaN,NaN,NaN,NaN,NaN,NaN,NaN
CE(16:0),HMDB00885,2.335,2,d,7.3,0.0489,0,[H][C@@]1(CC[C@@]2([H])[C@]3([H])CC=C4C[C@H](CC[C@]4(C)[C@@]3([H])CC[C@]12C)OC(=O)CCCCCCCCCCCCCCC)[C@H](C)CCCC(C)C,InChIKey=BBJQPKLGPMQWBU-JADYGXMDSA-N,1.87,10,297.73,NaN,NaN,NaN,NaN,NaN,NaN,NaN,NaN,NaN,NaN,NaN
FADH,HMDB01197,2.335,3,s,NA,1,-2,CC1=CC2=C(C=C1C)N(C[C@H](O)[C@H](O)[C@H](O)COP(O)(=O)OP(O)(=O)OC[C@H]1O[C@H]([C@H](O)[C@@H]1O)N1C=NC3=C1N=CN=C3N)C1=C(N2)C(=O)NC(=O)N1,InChIKey=YPZRHBJKEMOYQH-UYBVJOGSSA-N,3.63,-3.4,NA,NA,NA,NA,NA,NA,NA,NA,NA,NA,NA,NA
Isovalerylglutamic acid,HMDB00726,2.335,2,t,7.85,0.3491,-2,CC(C)CC(=O)N[C@@H](CCC(O)=O)C(O)=O,InChIKey=HCVIJONZMYVLAW-ZETCQYMHSA-N,1.12,4.95,NA,NA,NA,NA,NA,NA,NA,NA,NA,NA,NA,NA
L-Homocysteic acid,HMDB02205,2.335,5,m,NA,0.4901,-1,N[C@@H](CCS(O)(=O)=O)C(O)=O,InChIKey=VBOQYPQEPHKASR-VKHMYHEASA-N,3.86,-3.6,NA,NA,NA,NA,NA,NA,NA,NA,NA,NA,NA,NA
Lisinopril,HMDB01938,2.335,2,m,NA,0.3061,0,NCCCC[C@H](N[C@@H](CCC1=CC=CC=C1)C(O)=O)C(=O)N1CCC[C@H]1C(O)=O,InChIKey=RLAWWYSOJDYHDC-BZSNNMDCSA-N,2.04,-3,NA,NA,NA,NA,NA,NA,NA,NA,NA,NA,NA,NA
2-Piperidinone,HMDB11749,2.335,25,t,6.43,1,0,O=C1CCCCN1,InChIKey=XUWHAWMETYGRKB-UHFFFAOYSA-N,1.86,-6.7,NaN,NaN,NaN,NaN,NaN,NaN,NaN,NaN,NaN,NaN,NaN,NaN
3-Hydroxydodecanedioic acid,HMDB00413,2.335,1,m,NA,0.2122,-2,OC(CCCCCCCCC(O)=O)CC(O)=O,InChIKey=FYVQCLGZFXHEGL-UHFFFAOYSA-N,18.3,9.59,NaN,NaN,NaN,NaN,NaN,NaN,NaN,NaN,NaN,NaN,NaN,NaN
CE(18:2(9Z.12Z)),HMDB00610,2.335,2,d,7.32,0.1908,0,CCCCC\C=C/C\C=C/CCCCCCCC(=O)O[C@H]1CC[C@@]2(C)C(=CC[C@@]3([H])[C@]4([H])CC[C@]([H])([C@H](C)CCCC(C)C)[C@@]4(C)CC[C@]23[H])C1,InChIKey=NAACPBBQTFFYQB-LJAITQKLSA-N,1.87,10,NaN,NaN,NaN,NaN,NaN,NaN,NaN,NaN,NaN,NaN,NaN,NaN
Hyodeoxycholic acid,HMDB00733,2.335,0,m,NA,0.0772,-1,[H][C@@]12CC[C@H]([C@H](C)CCC(O)=O)[C@@]1(C)CC[C@@]1([H])[C@@]2([H])C[C@H](O)C2C[C@H](O)CC[C@]12C,InChIKey=DGABKXLVXPYZII-CDONHWFASA-N,5.01,-3.2,NaN,NaN,NaN,NaN,NaN,NaN,NaN,NaN,NaN,NaN,NaN,NaN
Loratadine,HMDB05000,2.335,3,m,NA,0.0202,0,CCOC(=O)N1CCC(CC1)=C1C2=C(CCC3=CC=CN=C13)C=C(Cl)C=C2,InChIKey=JCCNYMKQOSZNPW-UHFFFAOYSA-N,1.87,10,NaN,NaN,NaN,NaN,NaN,NaN,NaN,NaN,NaN,NaN,NaN,NaN
(R)-3-Hydroxybutyric acid,HMDB00011,2.341,1,dd,14.36 6.29,0.2701,-1,C[C@@H](O)CC(O)=O,InChIKey=WHBMMWSBFZVSSR-GSVOUGTGSA-N,3.37,4.09,53.33333333,25.8,NaN,NaN,286,NaN,NaN,NaN,NaN,NaN,NaN,NaN
Folic acid,HMDB00121,2.345,1,m,NA,0.4983,-2,NC1=NC(=O)C2=NC(CNC3=CC=C(C=C3)C(=O)N[C@@H](CCC(O)=O)C(O)=O)=CN=C2N1,InChIKey=OVBPIULPVIDEAO-LBPRGKRZSA-N,11.25,-3.7,0.039333333,NA,NaN,NaN,0.053,NaN,NaN,NaN,NaN,NaN,NaN,NaN
(R)-2-Benzylsuccinate,HMDB12127,2.345,1,dd,15.36 7.30,0.18,-2,OC(=O)C[C@H](CC1=CC=CC=C1)C(O)=O,InChIKey=GTOFKXZQQDSVFH-VIFPVBQESA-N,1.86,-4.8,NA,NA,NA,NA,NA,NA,NA,NA,NA,NA,NA,NA
Citalopram,HMDB05038,2.345,1,ddd,NA,0.005,1,CN(C)CCCC1(OCC2=C1C=CC(=C2)C#N)C1=CC=C(F)C=C1,InChIKey=WSEQXVZVJXJVFP-UHFFFAOYSA-N,1.87,10,NA,NA,NA,NA,NA,NA,NA,NA,NA,NA,NA,NA
TG(10:0/10:0/10:0)[iso],HMDB00548,2.345,2,t,7.54,0.1969,0,CCCCCCCCCC(=O)OCC(COC(=O)CCCCCCCCC)OC(=O)CCCCCCCCC,InChIKey=LADGBHLMCUINGV-UHFFFAOYSA-N,4.99,5.15,NA,NA,NA,NA,NA,NA,NA,NA,NA,NA,NA,NA
17-Hydroxyprogesterone,HMDB00374,2.345,10,m,NA,0.1031,0,[H][C@@]12CC[C@](O)(C(C)=O)[C@@]1(C)CC[C@@]1([H])[C@@]2([H])CCC2=CC(=O)CC[C@]12C,InChIKey=DBPWSSGDRRHUNT-CEGNMAFCSA-N,7.36,-1.4,NaN,0.0013,NaN,NA,NaN,NaN,NaN,NaN,NaN,NaN,NaN,NaN
3-Hydroxytetradecanedioic acid,HMDB00394,2.345,1,dd,NA,0.0171,-2,OC(CCCCCCCCCCC(O)=O)CC(O)=O,InChIKey=CEDZIURHISELSQ-UHFFFAOYSA-N,17.39,-1.6,NaN,NaN,NaN,NaN,NaN,NaN,NaN,NaN,NaN,NaN,NaN,NaN
Androstanedione,HMDB00899,2.345,1,m,NA,0.0832,0,[H][C@@]12CCC(=O)[C@@]1(C)CC[C@@]1([H])[C@@]2([H])CC[C@@]2([H])CC(=O)CC[C@]12C,InChIKey=RAJWOBJTTGJROA-WZNAKSSCSA-N,1.86,-3,NaN,NaN,NaN,NaN,NaN,NaN,NaN,NaN,NaN,NaN,NaN,NaN
Deoxycholic acid glycine conjugate,HMDB00631,2.345,2,m,NA,0.0702,-1,[H][C@]12CCC3C4CC[C@H]([C@H](C)CCC(=O)NCC(O)=O)[C@@]4(C)[C@@H](O)CC3[C@@]1(C)CC[C@@H](O)C2,InChIKey=WVULKSPCQVQLCU-ZMBDPXIHSA-N,1.86,-6.7,NaN,NaN,NaN,NaN,NaN,NaN,NaN,NaN,NaN,NaN,NaN,NaN
Glycyrrhetinic acid,HMDB11628,2.345,1,s,NA,0.2422,-1,CC1(C)[C@@H](O)CC[C@@]2(C)C1CC[C@]1(C)C2C(=O)C=C2C3C[C@](C)(CC[C@]3(C)CC[C@@]12C)C(O)=O,InChIKey=MPDGHEJMBKOTSU-WFJWTYAKSA-N,1.86,-3,NaN,NaN,NaN,NaN,NaN,NaN,NaN,NaN,NaN,NaN,NaN,NaN
Retinal,HMDB01358,2.345,3,d,0.99,0.2426,0,C\C(\C=C\C=C(/C)\C=C\C1=C(C)CCCC1(C)C)=C/C=O,InChIKey=NCYCYZXNIZJOKI-OVSJKPMPSA-N,1.48,10.78,NaN,NaN,NaN,NaN,NaN,NaN,NaN,NaN,NaN,NaN,NaN,NaN
Aminoadipic acid,HMDB00510,2.348,1,m,NA,1,-1,NC(CCCC(O)=O)C(O)=O,InChIKey=OYIFNHCXNCRBQI-UHFFFAOYSA-N,7.6,-3.8,2,4.6,NaN,NaN,NaN,NaN,NaN,NaN,NaN,NaN,NaN,NaN
Androstenedione,HMDB00053,2.355,8,m,NA,0.097,0,[H][C@@]12CCC(=O)[C@@]1(C)CC[C@@]1([H])[C@@]2([H])CCC2=CC(=O)CC[C@]12C,InChIKey=AEMFNILZOJDQLW-QAGGRKNESA-N,18.2,-7.4,0.0059,0.0068,NaN,NaN,NaN,NaN,NaN,NaN,NaN,NaN,NaN,NaN
Riboflavin,HMDB00244,2.355,3,s,NA,1,-1,CC1=C(C)C=C2N(C[C@H](O)[C@H](O)[C@H](O)CO)C3=NC(=O)NC(=O)C3=NC2=C1,InChIKey=AUNGANRZJHBGPY-SCRDCRAPSA-N,4.17,-3,0.015,0.18,NaN,0.058,NaN,NaN,NaN,NaN,NaN,NaN,NaN,NaN
Arachidic acid,HMDB02212,2.355,5,t,7.53,0.0697,-1,CCCCCCCCCCCCCCCCCCCC(O)=O,InChIKey=VKOBVWXKNCXXDE-UHFFFAOYSA-N,2.26,-3.6,0.238,NaN,NaN,NaN,NaN,NaN,NaN,NaN,NaN,NaN,NaN,NaN
3-Hydroxydodecanoic acid,HMDB00387,2.355,2,dd,NA,0.35,-1,CCCCCCCCCC(O)CC(O)=O,InChIKey=MUCMKTPAZLSKTL-UHFFFAOYSA-N,18.3,-0.13,0.3,NaN,NaN,NaN,NaN,NaN,NaN,NaN,NaN,NaN,NaN,NaN
Tetracosanoic acid,HMDB02003,2.355,2,t,NA,0.006,-1,CCCCCCCCCCCCCCCCCCCCCCCC(O)=O,InChIKey=QZZGJDVWLFXDLK-UHFFFAOYSA-N,0.83,4.99,0.596,NaN,NaN,NaN,NaN,NaN,NaN,NaN,NaN,NaN,NaN,NaN
L-Proline,HMDB00162,2.355,1,m,NA,0.4784,0,OC(=O)[C@@H]1CCCN1,InChIKey=ONIBWKKTOPOVIA-BYPYZUCNSA-N,4.75,9.43,181.2666667,NA,NaN,NA,NA,NaN,NaN,NaN,NaN,NaN,NaN,NaN
16-Dehydroprogesterone,HMDB00995,2.355,1,m,NA,0.1597,0,[H][C@@]12CC=C(C(C)=O)[C@@]1(C)CC[C@@]1([H])[C@@]2([H])CCC2=CC(=O)CC[C@]12C,InChIKey=VRRHHTISESGZFN-RKFFNLMFSA-N,2.52,-0.94,NA,NA,NA,NA,NA,NA,NA,NA,NA,NA,NA,NA
dCMP,HMDB01202,2.355,2,m,NA,0.0699,-2,NC1=NC(=O)N(C=C1)[C@H]1C[C@H](O)[C@@H](COP(O)(O)=O)O1,InChIKey=NCMVOABPESMRCP-SHYZEUOFSA-N,1.85,9.4,NA,NA,NA,NA,NA,NA,NA,NA,NA,NA,NA,NA
Heneicosanoic acid,HMDB02345,2.355,2,t,NA,0.0697,-1,CCCCCCCCCCCCCCCCCCCCC(O)=O,InChIKey=CKDDRHZIAZRDBW-UHFFFAOYSA-N,11.59,10,NA,NA,NA,NA,NA,NA,NA,NA,NA,NA,NA,NA
Ondansetron,HMDB05035,2.355,1,m,NA,0.0074,1,CN1C2=C(C3=CC=CC=C13)C(=O)C(CN1C=CN=C1C)CC2,InChIKey=FELGMEQIXOGIFQ-UHFFFAOYSA-N,1.87,10,NA,NA,NA,NA,NA,NA,NA,NA,NA,NA,NA,NA