Metabolite,HMDB Name,Shift (ppm),Hs,Type,J (Hz),Height,Physiological Charge,SMILES,InChlKey,pKa (Strongest Acidic),pKa (Strongest Basic),Blood,Urine,Feces,Saliva,Cerebrospinal Fluid (CSF),Amniotic Fluid,Aqueous Humour,Ascites Fluid,Breast Milk,Lymph,Sweat,Tears
Adenylsuccinic acid,HMDB00536,8.455,3,s,NA,0.0044,-4,O[C@@H]1[C@@H](COP(O)(O)=O)O[C@H]([C@@H]1O)N1C=NC2=C1N=CN=C2NC(CC(O)=O)C(O)=O,InChIKey=OFBHPPMPBOJXRT-DPXQIYNJSA-N,1.86,-3,NA,NA,NA,NA,NA,NA,NA,NA,NA,NA,NA,NA
Anatabine,HMDB04476,8.455,1,dd,4.87 1.62,0.1026,1,C1N[C@@H](CC=C1)C1=CN=CC=C1,InChIKey=SOPPBXUYQGUQHE-JTQLQIEISA-N,1.86,-6.7,NA,NA,NA,NA,NA,NA,NA,NA,NA,NA,NA,NA
Doxylamine,HMDB01936,8.458,1,ddd,4.95 1.74 0.84,0.0723,1,CN(C)CCOC(C)(C1=CC=CC=C1)C1=NC=CC=C1,InChIKey=HCFDWZZGGLSKEP-UHFFFAOYSA-N,4.63,8.61,NA,NA,NA,NA,NA,NA,NA,NA,NA,NA,NA,NA
Quinaldic acid,HMDB00842,8.458,1,d,8.48,0.9945,-1,OC(=O)C1=NC2=CC=CC=C2C=C1,InChIKey=LOAUVZALPPNFOQ-UHFFFAOYSA-N,1.91,-7.2,NA,NA,NA,NA,NA,NA,NA,NA,NA,NA,NA,NA
1-Methyladenosine,HMDB03331,8.475,1,s,NA,0.4054,0,CN1C=NC2=C(N=CN2[C@@H]2O[C@H](CO)[C@@H](O)[C@H]2O)C1=N,InChIKey=GFYLSDSUCHVORB-IOSLPCCCSA-N,14.58,-3,0.1,8.716666667,NaN,NaN,NaN,NaN,NaN,NaN,NaN,NaN,NaN,NaN
Chlorpheniramine,HMDB01944,8.475,1,dd,4.51 0.62,0.047,1,CN(C)CCC(C1=CC=C(Cl)C=C1)C1=CC=CC=N1,InChIKey=SOYKEARSMXGVTM-UHFFFAOYSA-N,1.87,10,NA,NA,NA,NA,NA,NA,NA,NA,NA,NA,NA,NA
Brompheniramine,HMDB01941,8.475,3,m,NA,0.0511,1,CN(C)CCC(C1=CC=C(Br)C=C1)C1=CC=CC=N1,InChIKey=ZDIGNSYAACHWNL-UHFFFAOYSA-N,2.58,9.64,NaN,NaN,NaN,NaN,NaN,NaN,NaN,NaN,NaN,NaN,NaN,NaN
Cotinine,HMDB01046,8.485,1,d,1.85,0.1935,0,CN1C(CCC1=O)C1=CN=CC=C1,InChIKey=UIKROCXWUNQSPJ-UHFFFAOYSA-N,1.68,-0.81,1.4,NaN,NaN,NA,NaN,NaN,NaN,NaN,NaN,NaN,NaN,NaN
Inosine triphosphate,HMDB00189,8.495,1,s,NA,0.8525,-3,O[C@@H]1[C@@H](COP(O)(=O)OP(O)(=O)OP(O)(O)=O)O[C@H]([C@@H]1O)N1C=NC2=C1N=CN=C2O,InChIKey=HAEJPQIATWHALX-KQYNXXCUSA-N,1.51,-3.7,NA,NA,NA,NA,NA,NA,NA,NA,NA,NA,NA,NA
Folic acid,HMDB00121,8.505,1,s,NA,1,-2,NC1=NC(=O)C2=NC(CNC3=CC=C(C=C3)C(=O)N[C@@H](CCC(O)=O)C(O)=O)=CN=C2N1,InChIKey=OVBPIULPVIDEAO-LBPRGKRZSA-N,11.25,-3.7,0.039333333,NA,NaN,NaN,0.053,NaN,NaN,NaN,NaN,NaN,NaN,NaN
Adenosine phosphosulfate,HMDB01003,8.505,1,s,NA,0.7431,-2,NC1=NC=NC2=C1N=CN2[C@@H]1O[C@H](COP(O)(=O)OS(O)(=O)=O)[C@@H](O)[C@H]1O,InChIKey=IRLPACMLTUPBCL-KQYNXXCUSA-N,1.77,-3.2,NA,NA,NA,NA,NA,NA,NA,NA,NA,NA,NA,NA
NADP,HMDB00217,8.505,2,s,NA,0.947,-3,NC(=O)C1=C[N+](=CC=C1)[C@@H]1O[C@H](CO[P@](O)(=O)O[P@](O)(=O)OC[C@H]2O[C@H]([C@H](OP(O)(O)=O)[C@@H]2O)N2C=NC3=C(N)N=CN=C23)[C@@H](O)[C@H]1O,InChIKey=XJLXINKUBYWONI-NNYOXOHSSA-O,4.48,-2.8,NA,NA,NA,NA,NA,NA,NA,NA,NA,NA,NA,NA
Deoxyadenosine triphosphate,HMDB01532,8.515,1,s,NA,0.0463,-3,NC1=NC=NC2=C1N=CN2[C@H]1C[C@H](O)[C@@H](COP(O)(=O)OP(O)(=O)OP(O)(O)=O)O1,InChIKey=SUYVUBYJARFZHO-RRKCRQDMSA-N,9.06,-4.2,NA,NA,NA,NA,NA,NA,NA,NA,NA,NA,NA,NA
2-Methylhippuric acid,HMDB11723,8.515,1,br. s.,NA,0.0828,-1,CC1=CC=CC=C1C(=O)NCC(O)=O,InChIKey=YOEBAVRJHRCKRE-UHFFFAOYSA-N,1.86,-6.7,NaN,NaN,NaN,NaN,NaN,NaN,NaN,NaN,NaN,NaN,NaN,NaN
Cotinine,HMDB01046,8.525,1,dd,4.93 1.38,0.1091,0,CN1C(CCC1=O)C1=CN=CC=C1,InChIKey=UIKROCXWUNQSPJ-UHFFFAOYSA-N,1.68,-0.81,1.4,NaN,NaN,NA,NaN,NaN,NaN,NaN,NaN,NaN,NaN,NaN
Deoxyadenosine monophosphate,HMDB00905,8.525,1,s,NA,1,-2,NC1=NC=NC2=C1N=CN2[C@H]1C[C@H](O)[C@@H](COP(O)(O)=O)O1,InChIKey=KHWCHTKSEGGWEX-RRKCRQDMSA-N,0.54,10.77,NA,NA,NA,NA,NA,NA,NA,NA,NA,NA,NA,NA
5'-Methylthioadenosine,HMDB01173,8.525,13,s,NA,0.345,0,CSC[C@H]1O[C@H]([C@H](O)[C@@H]1O)N1C=NC2=C1N=CN=C2N,InChIKey=WUUGFSXJNOTRMR-IOSLPCCCSA-N,10.19,-3,NaN,NaN,NaN,NaN,NaN,NaN,NaN,NaN,NaN,NaN,NaN,NaN
p-Cresol sulfate,HMDB11635,8.535,1,br. s.,NA,0.1475,-1,CC1=CC=C(OS(O)(=O)=O)C=C1,InChIKey=WGNAKZGUSRVWRH-UHFFFAOYSA-N,1.86,-3,NaN,NaN,NaN,14.22,NaN,NaN,NaN,NaN,NaN,NaN,NaN,NaN
Adenosine triphosphate,HMDB00538,8.541,1,s,NA,1,-3,NC1=NC=NC2=C1N=CN2[C@@H]1O[C@H](COP(O)(=O)OP(O)(=O)OP(O)(O)=O)[C@@H](O)[C@H]1O,InChIKey=ZKHQWZAMYRWXGA-KQYNXXCUSA-N,2.83,-0.58,2271,NaN,NaN,0.47,1.85,NaN,NaN,NaN,NaN,NaN,NaN,NaN
Anabasine,HMDB04350,8.555,1,d,2.15,0.0735,1,C1CCC(NC1)C1=CN=CC=C1,InChIKey=MTXSIJUGVMTTMU-UHFFFAOYSA-N,1.86,-4.8,0.0031,4.4,NaN,NaN,NaN,NaN,NaN,NaN,NaN,NaN,NaN,NaN
Coenzyme A,HMDB01423,8.555,1,s,NA,0.4544,-4,CC(C)(COP(O)(=O)OP(O)(=O)OC[C@H]1O[C@H]([C@H](O)[C@@H]1OP(O)(O)=O)N1C=NC2=C1N=CN=C2N)C(O)C(=O)NCCC(=O)NCCS,InChIKey=RGJOEKWQDUBAIZ-DRCCLKDXSA-N,16.92,3.22,NA,NA,NA,NA,NA,NA,NA,NA,NA,NA,NA,NA
ADP,HMDB01341,8.555,1,s,NA,0.1528,-2,NC1=NC=NC2=C1N=CN2[C@@H]1O[C@H](COP(O)(=O)OP(O)(O)=O)[C@@H](O)[C@H]1O,InChIKey=XTWYTFMLZFPYCI-KQYNXXCUSA-N,3.24,-2.8,NaN,NaN,NaN,NaN,1.9,NaN,NaN,NaN,NaN,NaN,NaN,NaN
Picolinic acid,HMDB02243,8.565,1,d,4.68,0.723,-1,OC(=O)C1=CC=CC=N1,InChIKey=SIOXPEMLGUPBBT-UHFFFAOYSA-N,3.92,-2.7,0.299,1.65,NaN,NaN,0.31,NaN,NaN,NaN,NaN,NaN,NaN,NaN
Inosinic acid,HMDB00175,8.565,1,s,NA,0.9164,-2,O[C@@H]1[C@@H](COP(O)(O)=O)O[C@H]([C@@H]1O)N1C=NC2=C1N=CNC2=O,InChIKey=GRSZFWQUAKGDAV-KQYNXXCUSA-N,18.2,-3,63,NaN,NaN,NaN,3.19,NaN,NaN,NaN,NaN,NaN,NaN,NaN
Anatabine,HMDB04476,8.585,1,d,2.26,0.1132,1,C1N[C@@H](CC=C1)C1=CN=CC=C1,InChIKey=SOPPBXUYQGUQHE-JTQLQIEISA-N,1.86,-6.7,NA,NA,NA,NA,NA,NA,NA,NA,NA,NA,NA,NA
Adenosine monophosphate,HMDB00045,8.595,1,s,NA,1,-2,NC1=NC=NC2=C1N=CN2[C@@H]1O[C@H](COP(O)(O)=O)[C@@H](O)[C@H]1O,InChIKey=UDMBCSSLTHHNCD-KQYNXXCUSA-N,3.5,-1.4,51,NaN,NaN,0.3,NA,NaN,NaN,NaN,NaN,NaN,NaN,NaN
Furosemide,HMDB01933,8.595,1,s,NA,0.1061,-1,NS(=O)(=O)C1=C(Cl)C=C(NCC2=CC=CO2)C(=C1)C(O)=O,InChIKey=ZZUFCTLCJUWOSV-UHFFFAOYSA-N,3.13,4.99,NA,NA,NA,NA,NA,NA,NA,NA,NA,NA,NA,NA
Adenosine 3'.5'-diphosphate,HMDB00061,8.595,1,s,NA,0.6302,-4,NC1=NC=NC2=C1N=CN2[C@@H]1O[C@H](COP(O)(O)=O)[C@@H](OP(O)(O)=O)[C@H]1O,InChIKey=WHTCPDAXWFLDIH-KQYNXXCUSA-N,9.07,4.95,NaN,NaN,NaN,NaN,NaN,NaN,NaN,NaN,NaN,NaN,NaN,NaN
Purine,HMDB01366,8.605,1,s,NA,0.6949,0,N1C=NC2=C1C=NC=N2,InChIKey=KDCGOANMDULRCW-UHFFFAOYSA-N,4.94,5,NaN,NaN,NaN,NaN,NaN,NaN,NaN,NaN,NaN,NaN,NaN,NaN
Imidazoleacetic acid,HMDB02024,8.615,3,s,NA,1,-1,OC(=O)CC1=CN=CN1,InChIKey=PRJKNHOMHKJCEJ-UHFFFAOYSA-N,2.38,-0.81,NaN,NaN,NaN,NaN,NaN,NaN,NaN,NaN,NaN,NaN,NaN,NaN
Pyridine,HMDB00926,8.635,2,d,5.28,0.9888,0,C1=CC=NC=C1,InChIKey=JUJWROOIHBZHMG-UHFFFAOYSA-N,0.82,-3,NaN,NaN,NaN,NaN,NaN,NaN,NaN,NaN,NaN,NaN,NaN,NaN
L(-)-Nicotine pestanal,HMDB01934,8.645,1,dd,4.92 1.35,0.0987,1,CN1CCC[C@H]1C1=CN=CC=C1,InChIKey=SNICXCGAKADSCV-JTQLQIEISA-N,1.87,10,0.745,NaN,NaN,NaN,NaN,NaN,NaN,NaN,NaN,NaN,NaN,NaN
Pterin,HMDB00802,8.655,1,br. s.,NA,0.0635,0,NC1=NC2=NC=CN=C2C(=O)N1,InChIKey=HNXQXTQTPAJEJL-UHFFFAOYSA-N,0.83,-2.1,NA,NA,NA,NA,NA,NA,NA,NA,NA,NA,NA,NA
Neopterin,HMDB00845,8.675,1,s,NA,0.9799,0,NC1=NC2=C(N=C(C=N2)C(O)C(O)CO)C(=O)N1,InChIKey=BMQYVXCPAOLZOK-UHFFFAOYSA-N,0.83,-0.77,0.004933333,NaN,NaN,NaN,NaN,NaN,NaN,NaN,NaN,NaN,NaN,NaN
L(-)-Nicotine pestanal,HMDB01934,8.675,1,d,2.15,0.1591,1,CN1CCC[C@H]1C1=CN=CC=C1,InChIKey=SNICXCGAKADSCV-JTQLQIEISA-N,1.87,10,0.745,NaN,NaN,NaN,NaN,NaN,NaN,NaN,NaN,NaN,NaN,NaN
Pteroyltriglutamic acid,HMDB01902,8.695,1,s,NA,0.1164,-4,NC1=NC(=O)C2=NC(CNC3=CC=C(C=C3)C(=O)NC(CCC(=O)NC(CCC(=O)NC(CCC(O)=O)C(O)=O)C(O)=O)C(O)=O)=CN=C2N1,InChIKey=WOLQREOUPKZMEX-UHFFFAOYSA-N,13.42,-0.26,NA,NA,NA,NA,NA,NA,NA,NA,NA,NA,NA,NA
Berberine,HMDB03409,8.705,1,s,NA,0.1556,1,COC1=C(OC)C2=C[N+]3=C(C=C2C=C1)C1=CC2=C(OCO2)C=C1CC3,InChIKey=YBHILYKTIRIUTE-UHFFFAOYSA-N,14.58,-3,NaN,NaN,NaN,NaN,NaN,NaN,NaN,NaN,NaN,NaN,NaN,NaN
Aminopterin,HMDB01833,8.707,1,s,NA,0.9644,-2,NC1=NC2=C(N=C(CNC3=CC=C(C=C3)C(=O)NC(CCC(O)=O)C(O)=O)C=N2)C(N)=N1,InChIKey=TVZGACDUOSZQKY-UHFFFAOYSA-N,9.51,-3.5,NA,NA,NA,NA,NA,NA,NA,NA,NA,NA,NA,NA
Niacinamide,HMDB01406,8.715,1,dd,4.86 1.12,0.5923,0,NC(=O)C1=CN=CC=C1,InChIKey=DFPAKSUCGFBDDF-UHFFFAOYSA-N,4.86,3.72,0.235,NaN,NaN,NaN,NaN,NaN,NaN,NaN,NaN,NaN,NaN,NaN
Biopterin,HMDB00468,8.725,1,s,NA,0.7364,0,C[C@H](O)[C@H](O)C1=NC2=C(NC(N)=NC2=O)N=C1,InChIKey=LHQIJBMDNUYRAM-DZSWIPIPSA-N,-1.9,3.8,0.017,NaN,NaN,NaN,NaN,NaN,NaN,NaN,NaN,NaN,NaN,NaN
4-(Methylnitrosamino)-1-(3-pyridyl)-1-butanone,HMDB11603,8.735,2,dd,4.95 1.54,0.0913,0,CN(CCCC(=O)C1=CC=CN=C1)N=O,InChIKey=FLAQQSHRLBFIEZ-UHFFFAOYSA-N,1.86,-3,NaN,NaN,NaN,NaN,NaN,NaN,NaN,NaN,NaN,NaN,NaN,NaN
Levofloxacin,HMDB01929,8.785,1,s,NA,0.208,-1,C[C@H]1COC2=C(N3CCN(C)CC3)C(F)=CC3=C2N1C=C(C(O)=O)C3=O,InChIKey=GSDSWSVVBLHKDQ-JTQLQIEISA-N,3.51,-6.3,0.135,NaN,NaN,NaN,NaN,NaN,NaN,NaN,NaN,NaN,NaN,NaN
Pyrimidine,HMDB03361,8.825,2,d,5.06,1,0,C1=CN=CN=C1,InChIKey=CZPWVGJYEJSRLH-UHFFFAOYSA-N,14.58,-3,NaN,NaN,NaN,NaN,NaN,NaN,NaN,NaN,NaN,NaN,NaN,NaN
Trigonelline,HMDB00875,8.841,2,m,NA,0.3628,0,C[N+]1=CC(=CC=C1)C([O-])=O,InChIKey=WWNNZCOKKKDOPX-UHFFFAOYSA-N,1.93,-8.2,NaN,NaN,NaN,NaN,NaN,NaN,NaN,NaN,NaN,NaN,NaN,NaN
NAD,HMDB00902,8.854,1,d,8.07,0.2946,-1,NC(=O)C1=C[N+](=CC=C1)[C@@H]1O[C@H](COP(O)(=O)OP(O)(=O)OC[C@H]2O[C@H]([C@H](O)[C@@H]2O)N2C=NC3=C2N=CN=C3N)[C@@H](O)[C@H]1O,InChIKey=BAWFJGJZGIEFAR-NNYOXOHSSA-O,4.36,11.1,24,NaN,NaN,NaN,NaN,NaN,NaN,NaN,NaN,NaN,NaN,NaN
NADP,HMDB00217,8.895,2,d,8.1,0.2854,-3,NC(=O)C1=C[N+](=CC=C1)[C@@H]1O[C@H](CO[P@](O)(=O)O[P@](O)(=O)OC[C@H]2O[C@H]([C@H](OP(O)(O)=O)[C@@H]2O)N2C=NC3=C(N)N=CN=C23)[C@@H](O)[C@H]1O,InChIKey=XJLXINKUBYWONI-NNYOXOHSSA-O,4.48,-2.8,NA,NA,NA,NA,NA,NA,NA,NA,NA,NA,NA,NA
1-Methylnicotinamide,HMDB00699,8.907,1,d,8.2,0.5828,1,C[N+]1=CC=CC(=C1)C(N)=O,InChIKey=LDHMAVIPBRSVRG-UHFFFAOYSA-O,4.22,0.02,0.43,4.3025,NaN,NaN,NaN,NaN,NaN,NaN,NaN,NaN,NaN,NaN
N-Methylnicotinamide,HMDB03152,8.925,1,d,8.14,0.1036,0,CNC(=O)C1=CN=CC=C1,InChIKey=ZYVXHFWBYUDDBM-UHFFFAOYSA-N,14.58,-3,NaN,NaN,NaN,NaN,NaN,NaN,NaN,NaN,NaN,NaN,NaN,NaN
Niacinamide,HMDB01406,8.935,1,s,NA,1,0,NC(=O)C1=CN=CC=C1,InChIKey=DFPAKSUCGFBDDF-UHFFFAOYSA-N,4.86,3.72,0.235,NaN,NaN,NaN,NaN,NaN,NaN,NaN,NaN,NaN,NaN,NaN
Purine,HMDB01366,8.945,1,s,NA,0.6918,0,N1C=NC2=C1C=NC=N2,InChIKey=KDCGOANMDULRCW-UHFFFAOYSA-N,4.94,5,NaN,NaN,NaN,NaN,NaN,NaN,NaN,NaN,NaN,NaN,NaN,NaN
1-Methylnicotinamide,HMDB00699,8.98,1,d,6.14,0.5727,1,C[N+]1=CC=CC(=C1)C(N)=O,InChIKey=LDHMAVIPBRSVRG-UHFFFAOYSA-O,4.22,0.02,0.43,4.3025,NaN,NaN,NaN,NaN,NaN,NaN,NaN,NaN,NaN,NaN
N-Methylnicotinamide,HMDB03152,8.985,1,d,6.16,0.1029,0,CNC(=O)C1=CN=CC=C1,InChIKey=ZYVXHFWBYUDDBM-UHFFFAOYSA-N,14.58,-3,NaN,NaN,NaN,NaN,NaN,NaN,NaN,NaN,NaN,NaN,NaN,NaN
Nicotinamide ribotide,HMDB00229,9.005,1,d,8.09,0.3537,-1,NC(=O)C1=CC=C[N+](=C1)[C@@H]1O[C@H](COP(O)([O-])=O)[C@@H](O)[C@H]1O,InChIKey=DAYLJWODMCOQEW-TURQNECASA-N,14.55,-1,NaN,66.67,NaN,NaN,NaN,NaN,NaN,NaN,NaN,NaN,NaN,NaN
Nicotinuric acid,HMDB03269,9.015,1,m,NA,0.3726,-1,OC(=O)CNC(=O)C1=CN=CC=C1,InChIKey=ZBSGKPYXQINNGF-UHFFFAOYSA-N,14.58,-3,10,NaN,NaN,NaN,NaN,NaN,NaN,NaN,NaN,NaN,NaN,NaN
4-(Methylnitrosamino)-1-(3-pyridyl)-1-butanone,HMDB11603,9.035,2,m,NA,0.1327,0,CN(CCCC(=O)C1=CC=CN=C1)N=O,InChIKey=FLAQQSHRLBFIEZ-UHFFFAOYSA-N,1.86,-3,NaN,NaN,NaN,NaN,NaN,NaN,NaN,NaN,NaN,NaN,NaN,NaN
Acetaminophen,HMDB01859,9.125,1,s,NA,0.348,0,CC(=O)NC1=CC=C(O)C=C1,InChIKey=RZVAJINKPMORJF-UHFFFAOYSA-N,14.23,4.95,NaN,8.2,NaN,NaN,11,NaN,NaN,NaN,NaN,NaN,NaN,NaN
Purine,HMDB01366,9.125,1,s,NA,0.9216,0,N1C=NC2=C1C=NC=N2,InChIKey=KDCGOANMDULRCW-UHFFFAOYSA-N,4.94,5,NaN,NaN,NaN,NaN,NaN,NaN,NaN,NaN,NaN,NaN,NaN,NaN
Trigonelline,HMDB00875,9.129,1,s,NA,0.3239,0,C[N+]1=CC(=CC=C1)C([O-])=O,InChIKey=WWNNZCOKKKDOPX-UHFFFAOYSA-N,1.93,-8.2,NaN,NaN,NaN,NaN,NaN,NaN,NaN,NaN,NaN,NaN,NaN,NaN
Pyrimidine,HMDB03361,9.145,1,d,0.88,0.3662,0,C1=CN=CN=C1,InChIKey=CZPWVGJYEJSRLH-UHFFFAOYSA-N,14.58,-3,NaN,NaN,NaN,NaN,NaN,NaN,NaN,NaN,NaN,NaN,NaN,NaN
NAD,HMDB00902,9.167,1,d,6.2,0.2986,-1,NC(=O)C1=C[N+](=CC=C1)[C@@H]1O[C@H](COP(O)(=O)OP(O)(=O)OC[C@H]2O[C@H]([C@H](O)[C@@H]2O)N2C=NC3=C2N=CN=C3N)[C@@H](O)[C@H]1O,InChIKey=BAWFJGJZGIEFAR-NNYOXOHSSA-O,4.36,11.1,24,NaN,NaN,NaN,NaN,NaN,NaN,NaN,NaN,NaN,NaN,NaN
NADP,HMDB00217,9.205,2,d,6.22,0.2953,-3,NC(=O)C1=C[N+](=CC=C1)[C@@H]1O[C@H](CO[P@](O)(=O)O[P@](O)(=O)OC[C@H]2O[C@H]([C@H](OP(O)(O)=O)[C@@H]2O)N2C=NC3=C(N)N=CN=C23)[C@@H](O)[C@H]1O,InChIKey=XJLXINKUBYWONI-NNYOXOHSSA-O,4.48,-2.8,NA,NA,NA,NA,NA,NA,NA,NA,NA,NA,NA,NA
Nicotinuric acid,HMDB03269,9.265,1,s,NA,0.2763,-1,OC(=O)CNC(=O)C1=CN=CC=C1,InChIKey=ZBSGKPYXQINNGF-UHFFFAOYSA-N,14.58,-3,10,NaN,NaN,NaN,NaN,NaN,NaN,NaN,NaN,NaN,NaN,NaN
1-Methylnicotinamide,HMDB00699,9.292,1,s,NA,1,1,C[N+]1=CC=CC(=C1)C(N)=O,InChIKey=LDHMAVIPBRSVRG-UHFFFAOYSA-O,4.22,0.02,0.43,4.3025,NaN,NaN,NaN,NaN,NaN,NaN,NaN,NaN,NaN,NaN
N-Methylnicotinamide,HMDB03152,9.305,1,s,NA,0.1849,0,CNC(=O)C1=CN=CC=C1,InChIKey=ZYVXHFWBYUDDBM-UHFFFAOYSA-N,14.58,-3,NaN,NaN,NaN,NaN,NaN,NaN,NaN,NaN,NaN,NaN,NaN,NaN
Nicotinamide ribotide,HMDB00229,9.345,1,d,6.16,0.3785,-1,NC(=O)C1=CC=C[N+](=C1)[C@@H]1O[C@H](COP(O)([O-])=O)[C@@H](O)[C@H]1O,InChIKey=DAYLJWODMCOQEW-TURQNECASA-N,14.55,-1,NaN,66.67,NaN,NaN,NaN,NaN,NaN,NaN,NaN,NaN,NaN,NaN
NAD,HMDB00902,9.347,1,s,NA,0.5964,-1,NC(=O)C1=C[N+](=CC=C1)[C@@H]1O[C@H](COP(O)(=O)OP(O)(=O)OC[C@H]2O[C@H]([C@H](O)[C@@H]2O)N2C=NC3=C2N=CN=C3N)[C@@H](O)[C@H]1O,InChIKey=BAWFJGJZGIEFAR-NNYOXOHSSA-O,4.36,11.1,24,NaN,NaN,NaN,NaN,NaN,NaN,NaN,NaN,NaN,NaN,NaN
NADP,HMDB00217,9.375,2,s,NA,0.5049,-3,NC(=O)C1=C[N+](=CC=C1)[C@@H]1O[C@H](CO[P@](O)(=O)O[P@](O)(=O)OC[C@H]2O[C@H]([C@H](OP(O)(O)=O)[C@@H]2O)N2C=NC3=C(N)N=CN=C23)[C@@H](O)[C@H]1O,InChIKey=XJLXINKUBYWONI-NNYOXOHSSA-O,4.48,-2.8,NA,NA,NA,NA,NA,NA,NA,NA,NA,NA,NA,NA
Glyoxylic acid,HMDB00119,9.405,1,s,NA,0.0707,-1,OC(=O)C=O,InChIKey=HHLFWLYXYJOTON-UHFFFAOYSA-N,2.74,8.93,NaN,3.28,NaN,NaN,NaN,NaN,NaN,NaN,NaN,NaN,NaN,NaN
Thiamine,HMDB00235,9.485,1,s,NA,0.0221,1,CC1=C(CCO)SC=[N+]1CC1=C(N)N=C(C)N=C1,InChIKey=JZRWCGZRTZMZEH-UHFFFAOYSA-N,4.66,-3,NaN,0.22,NaN,0.247,0.0735,NaN,NaN,NaN,NaN,NaN,NaN,NaN
Nicotinamide ribotide,HMDB00229,9.595,1,s,NA,0.6454,-1,NC(=O)C1=CC=C[N+](=C1)[C@@H]1O[C@H](COP(O)([O-])=O)[C@@H](O)[C@H]1O,InChIKey=DAYLJWODMCOQEW-TURQNECASA-N,14.55,-1,NaN,66.67,NaN,NaN,NaN,NaN,NaN,NaN,NaN,NaN,NaN,NaN
Acetaminophen,HMDB01859,9.645,1,s,NA,0.2093,0,CC(=O)NC1=CC=C(O)C=C1,InChIKey=RZVAJINKPMORJF-UHFFFAOYSA-N,14.23,4.95,NaN,8.2,NaN,NaN,11,NaN,NaN,NaN,NaN,NaN,NaN,NaN
Iso-Valeraldehyde,HMDB06478,9.665,1,t,NA,0.0645,0,CC(C)CC=O,InChIKey=YGHRJJRRZDOVPD-UHFFFAOYSA-N,1.89,-6.6,0.11,NaN,NaN,NaN,14.9,NaN,NaN,NaN,NaN,NaN,NaN,NaN
Butanal,HMDB03543,9.675,1,t,NA,0.0409,0,CCCC=O,InChIKey=ZTQSAGDEMFDKMZ-UHFFFAOYSA-N,14.58,-3,NaN,NaN,NaN,NaN,NaN,NaN,NaN,NaN,NaN,NaN,NaN,NaN
Octanal,HMDB01140,9.675,1,s,NA,0.0465,0,CCCCCCCC=O,InChIKey=NUJGJRNETVAIRJ-UHFFFAOYSA-N,1.94,-6.3,NaN,NaN,NaN,NaN,NaN,NaN,NaN,NaN,NaN,NaN,NaN,NaN
Cinnamaldehyde,HMDB03441,9.685,1,d,7.7,0.0884,0,O=C\C=C\C1=CC=CC=C1,InChIKey=KJPRLNWUNMBNBZ-QPJJXVBHSA-N,14.58,-3,NaN,NaN,NaN,NaN,NaN,NaN,NaN,NaN,NaN,NaN,NaN,NaN
Succinic acid semialdehyde,HMDB01259,9.685,1,s,NA,0.2576,-1,OC(=O)CCC=O,InChIKey=UIUJIQZEACWQSV-UHFFFAOYSA-N,3.53,8.14,NaN,NaN,NaN,NaN,NaN,NaN,NaN,NaN,NaN,NaN,NaN,NaN
Glyceraldehyde,HMDB01051,9.695,1,s,NA,0.0791,0,OCC(O)C=O,InChIKey=MNQZXJOMYWMBOU-UHFFFAOYSA-N,1.37,-1.4,1476,NaN,NaN,NaN,NaN,NaN,NaN,NaN,NaN,NaN,NaN,NaN
Propanal,HMDB03366,9.705,1,m,NA,0.19,0,CCC=O,InChIKey=NBBJYMSMWIIQGU-UHFFFAOYSA-N,14.58,-3,NaN,NaN,NaN,NaN,NaN,NaN,NaN,NaN,NaN,NaN,NaN,NaN
Decanal,HMDB11623,9.775,0,t,NA,0.03,0,CCCCCCCCCC=O,InChIKey=KSMVZQYAVGTKIV-UHFFFAOYSA-N,1.86,-3,0.11,NaN,NaN,NaN,NaN,NaN,NaN,NaN,NaN,NaN,NaN,NaN
Berberine,HMDB03409,9.775,1,s,NA,0.1467,1,COC1=C(OC)C2=C[N+]3=C(C=C2C=C1)C1=CC2=C(OCO2)C=C1CC3,InChIKey=YBHILYKTIRIUTE-UHFFFAOYSA-N,14.58,-3,NaN,NaN,NaN,NaN,NaN,NaN,NaN,NaN,NaN,NaN,NaN,NaN
Hexanal,HMDB05994,9.785,1,t,NA,0.0791,0,CCCCCC=O,InChIKey=JARKCYVAAOWBJS-UHFFFAOYSA-N,1.83,-3.6,0.22,NaN,NaN,NaN,0,NaN,NaN,NaN,NaN,NaN,NaN,NaN
Benzaldehyde,HMDB06115,9.945,1,s,NA,1,0,O=CC1=CC=CC=C1,InChIKey=HUMNYLRZRPPJDN-UHFFFAOYSA-N,0.63,-3.6,NaN,NaN,NaN,NaN,NaN,NaN,NaN,NaN,NaN,NaN,NaN,NaN
Retinal,HMDB01358,10.115,1,d,8.14,0.052,0,C\C(\C=C\C=C(/C)\C=C\C1=C(C)CCCC1(C)C)=C/C=O,InChIKey=NCYCYZXNIZJOKI-OVSJKPMPSA-N,1.48,10.78,NaN,NaN,NaN,NaN,NaN,NaN,NaN,NaN,NaN,NaN,NaN,NaN
Pyridoxal 5'-phosphate,HMDB01491,10.445,9,s,NA,0.3785,-2,CC1=NC=C(COP(O)(O)=O)C(C=O)=C1O,InChIKey=NGVDGCNFYWLIFO-UHFFFAOYSA-N,3.27,4.95,0.0309,NaN,NaN,NaN,NaN,NaN,NaN,NaN,NaN,NaN,NaN,NaN
Thymol,HMDB01878,11.515,1,s,NA,0.1288,0,CC(C)C1=C(O)C=C(C)C=C1,InChIKey=MGSRCZKZVOBKFT-UHFFFAOYSA-N,0.81,4.95,NaN,NaN,NaN,NaN,NaN,NaN,NaN,NaN,NaN,NaN,NaN,NaN
Thymol,HMDB01878,11.585,1,d,8.46,0.0573,0,CC(C)C1=C(O)C=C(C)C=C1,InChIKey=MGSRCZKZVOBKFT-UHFFFAOYSA-N,0.81,4.95,NaN,NaN,NaN,NaN,NaN,NaN,NaN,NaN,NaN,NaN,NaN,NaN
Thymol,HMDB01878,11.975,1,d,7.78,0.1339,0,CC(C)C1=C(O)C=C(C)C=C1,InChIKey=MGSRCZKZVOBKFT-UHFFFAOYSA-N,0.81,4.95,NaN,NaN,NaN,NaN,NaN,NaN,NaN,NaN,NaN,NaN,NaN,NaN
Imidazoleacetic acid,HMDB02024,12.115,1,s,NA,0.2334,-1,OC(=O)CC1=CN=CN1,InChIKey=PRJKNHOMHKJCEJ-UHFFFAOYSA-N,2.38,-0.81,NaN,NaN,NaN,NaN,NaN,NaN,NaN,NaN,NaN,NaN,NaN,NaN
Imidazoleacetic acid,HMDB02024,13.405,1,s,NA,0.1896,-1,OC(=O)CC1=CN=CN1,InChIKey=PRJKNHOMHKJCEJ-UHFFFAOYSA-N,2.38,-0.81,NaN,NaN,NaN,NaN,NaN,NaN,NaN,NaN,NaN,NaN,NaN,NaN
2-Hydroxyphenethylamine,HMDB01065,NA,1,dd,13.2,0.1879,1,NCC(O)C1=CC=CC=C1,InChIKey=ULSIYEODSMZIPX-UHFFFAOYSA-N,1.86,4.11,0.002765,NaN,NaN,NaN,NaN,NaN,NaN,NaN,NaN,NaN,NaN,NaN
2-Hydroxyphenethylamine,HMDB01065,NA,1,dd,13.20 3.96,0.1994,1,NCC(O)C1=CC=CC=C1,InChIKey=ULSIYEODSMZIPX-UHFFFAOYSA-N,1.86,4.11,0.002765,NaN,NaN,NaN,NaN,NaN,NaN,NaN,NaN,NaN,NaN,NaN
2-Hydroxyphenethylamine,HMDB01065,NA,5,m,NA,1,1,NCC(O)C1=CC=CC=C1,InChIKey=ULSIYEODSMZIPX-UHFFFAOYSA-N,1.86,4.11,0.002765,NaN,NaN,NaN,NaN,NaN,NaN,NaN,NaN,NaN,NaN,NaN
2-Hydroxyphenethylamine,HMDB01065,NA,1,dd,8.80 3.52,0.1432,1,NCC(O)C1=CC=CC=C1,InChIKey=ULSIYEODSMZIPX-UHFFFAOYSA-N,1.86,4.11,0.002765,NaN,NaN,NaN,NaN,NaN,NaN,NaN,NaN,NaN,NaN,NaN
Vanylglycol,HMDB01490,NA,79,d,1.96,0.169,0,COC1=CC(=CC=C1O)C(O)CO,InChIKey=FBWPWWWZWKPJFL-UHFFFAOYSA-N,1.86,-7.5,0.01715,0.86,NaN,NaN,6.397833333,NaN,NaN,NaN,NaN,NaN,NaN,NaN
Vanylglycol,HMDB01490,NA,83,m,NA,0.2319,0,COC1=CC(=CC=C1O)C(O)CO,InChIKey=FBWPWWWZWKPJFL-UHFFFAOYSA-N,1.86,-7.5,0.01715,0.86,NaN,NaN,6.397833333,NaN,NaN,NaN,NaN,NaN,NaN,NaN
Vanylglycol,HMDB01490,NA,81,m,NA,0.1206,0,COC1=CC(=CC=C1O)C(O)CO,InChIKey=FBWPWWWZWKPJFL-UHFFFAOYSA-N,1.86,-7.5,0.01715,0.86,NaN,NaN,6.397833333,NaN,NaN,NaN,NaN,NaN,NaN,NaN
Vanylglycol,HMDB01490,NA,156,d,6.08,0.3008,0,COC1=CC(=CC=C1O)C(O)CO,InChIKey=FBWPWWWZWKPJFL-UHFFFAOYSA-N,1.86,-7.5,0.01715,0.86,NaN,NaN,6.397833333,NaN,NaN,NaN,NaN,NaN,NaN,NaN
Vanylglycol,HMDB01490,NA,71,t,6.05,0.1212,0,COC1=CC(=CC=C1O)C(O)CO,InChIKey=FBWPWWWZWKPJFL-UHFFFAOYSA-N,1.86,-7.5,0.01715,0.86,NaN,NaN,6.397833333,NaN,NaN,NaN,NaN,NaN,NaN,NaN
Vanylglycol,HMDB01490,NA,39,s,NA,1,0,COC1=CC(=CC=C1O)C(O)CO,InChIKey=FBWPWWWZWKPJFL-UHFFFAOYSA-N,1.86,-7.5,0.01715,0.86,NaN,NaN,6.397833333,NaN,NaN,NaN,NaN,NaN,NaN,NaN
Homogentisic acid,HMDB00130,NA,1,m,NA,0.2662,-1,OC(=O)CC1=C(O)C=CC(O)=C1,InChIKey=IGMNYECMUMZDDF-UHFFFAOYSA-N,4.66,9.53,0.043,NaN,NaN,NaN,NaN,NaN,NaN,NaN,NaN,NaN,NaN,NaN
Homogentisic acid,HMDB00130,NA,2,s,NA,1,-1,OC(=O)CC1=C(O)C=CC(O)=C1,InChIKey=IGMNYECMUMZDDF-UHFFFAOYSA-N,4.66,9.53,0.043,NaN,NaN,NaN,NaN,NaN,NaN,NaN,NaN,NaN,NaN,NaN
Homogentisic acid,HMDB00130,NA,2,m,NA,0.3398,-1,OC(=O)CC1=C(O)C=CC(O)=C1,InChIKey=IGMNYECMUMZDDF-UHFFFAOYSA-N,4.66,9.53,0.043,NaN,NaN,NaN,NaN,NaN,NaN,NaN,NaN,NaN,NaN,NaN
1-Methylguanosine,HMDB01563,NA,1,s,NA,0.3726,0,CN1C(N)=NC2=C(N=CN2[C@@H]2O[C@H](CO)[C@@H](O)[C@H]2O)C1=O,InChIKey=UTAIYTHAJQNQDW-KQYNXXCUSA-N,3.39,-1.4,0.046,2.4,NaN,NaN,NaN,NaN,NaN,NaN,NaN,NaN,NaN,NaN
1-Methylguanosine,HMDB01563,NA,2,d,9.24,0.1134,0,CN1C(N)=NC2=C(N=CN2[C@@H]2O[C@H](CO)[C@@H](O)[C@H]2O)C1=O,InChIKey=UTAIYTHAJQNQDW-KQYNXXCUSA-N,3.39,-1.4,0.046,2.4,NaN,NaN,NaN,NaN,NaN,NaN,NaN,NaN,NaN,NaN
1-Methylguanosine,HMDB01563,NA,1,t,5.5,0.1181,0,CN1C(N)=NC2=C(N=CN2[C@@H]2O[C@H](CO)[C@@H](O)[C@H]2O)C1=O,InChIKey=UTAIYTHAJQNQDW-KQYNXXCUSA-N,3.39,-1.4,0.046,2.4,NaN,NaN,NaN,NaN,NaN,NaN,NaN,NaN,NaN,NaN
1-Methylguanosine,HMDB01563,NA,1,d,5.72,0.1816,0,CN1C(N)=NC2=C(N=CN2[C@@H]2O[C@H](CO)[C@@H](O)[C@H]2O)C1=O,InChIKey=UTAIYTHAJQNQDW-KQYNXXCUSA-N,3.39,-1.4,0.046,2.4,NaN,NaN,NaN,NaN,NaN,NaN,NaN,NaN,NaN,NaN
1-Methylguanosine,HMDB01563,NA,3,s,NA,1,0,CN1C(N)=NC2=C(N=CN2[C@@H]2O[C@H](CO)[C@@H](O)[C@H]2O)C1=O,InChIKey=UTAIYTHAJQNQDW-KQYNXXCUSA-N,3.39,-1.4,0.046,2.4,NaN,NaN,NaN,NaN,NaN,NaN,NaN,NaN,NaN,NaN