Metabolite,HMDB Name,Shift (ppm),Hs,Type,J (Hz),Height,Physiological Charge,SMILES,InChlKey,pKa (Strongest Acidic),pKa (Strongest Basic),Blood,Urine,Feces,Saliva,Cerebrospinal Fluid (CSF),Amniotic Fluid,Aqueous Humour,Ascites Fluid,Breast Milk,Lymph,Sweat,Tears
Trimethylamine N-oxide,HMDB00925,3.265,123,s,NA,1,0,C[N+](C)(C)[O-],InChIKey=UYPYRKYUKCHHIB-UHFFFAOYSA-N,12.47,4.95,38.305,118.7,NaN,NA,NaN,NaN,NaN,NaN,NaN,NaN,NaN,NaN
Betaine,HMDB00043,3.265,83,s,NA,1,0,C[N+](C)(C)CC([O-])=O,InChIKey=KWIUHFFTVRNATP-UHFFFAOYSA-N,4.2,-2.8,62.53333333,49.6,NaN,12.78,NaN,NaN,NaN,NaN,NaN,NaN,NaN,NaN
Taurine,HMDB00251,3.265,2,t,6.57,1,0,NCCS(O)(=O)=O,InChIKey=XOAAWQZATWQOTB-UHFFFAOYSA-N,3.57,-1.4,73,43.078,NaN,105.56,6.903333333,NaN,NaN,NaN,NaN,NaN,NaN,NaN
Berberine,HMDB03409,3.265,2,t,6.35,0.1169,1,COC1=C(OC)C2=C[N+]3=C(C=C2C=C1)C1=CC2=C(OCO2)C=C1CC3,InChIKey=YBHILYKTIRIUTE-UHFFFAOYSA-N,14.58,-3,NaN,NaN,NaN,NaN,NaN,NaN,NaN,NaN,NaN,NaN,NaN,NaN
Isomaltose,HMDB02923,3.265,1,dd,8.97 8.09,0.5346,0,OC[C@H]1O[C@H](OC[C@H]2OC(O)[C@H](O)[C@@H](O)[C@@H]2O)[C@H](O)[C@@H](O)[C@@H]1O,InChIKey=DLRVVLDZNNYCBX-RTPHMHGBSA-N,9.91,-1.4,NaN,NaN,NaN,NaN,NaN,NaN,NaN,NaN,NaN,NaN,NaN,NaN
Melibiose,HMDB00048,3.265,6,t,8.53,0.2729,0,OC[C@H]1O[C@H](OC[C@H]2OC(O)[C@H](O)[C@@H](O)[C@@H]2O)[C@H](O)[C@@H](O)[C@H]1O,InChIKey=DLRVVLDZNNYCBX-ABXHMFFYSA-N,2.06,-0.1,NaN,NaN,NaN,NaN,NaN,NaN,NaN,NaN,NaN,NaN,NaN,NaN
Epinephrine,HMDB00068,3.275,2,s,NA,0.2218,1,CNC[C@H](O)C1=CC=C(O)C(O)=C1,InChIKey=UCTWMZQNUQWSLP-VIFPVBQESA-N,3.91,-3.6,0.00164,0.004333333,NaN,NaN,0.00012,NaN,NaN,NaN,NaN,NaN,NaN,NaN
3-Methoxytyramine,HMDB00022,3.275,1,t,7.28,0.0749,1,COC1=C(O)C=CC(CCN)=C1,InChIKey=DIVQKHQLANKJQO-UHFFFAOYSA-N,1.08,-3.6,0.0025,0.6,NaN,NaN,NaN,NaN,NaN,NaN,NaN,NaN,NaN,NaN
Amlodipine,HMDB05018,3.275,2,dd,6.02 4.26,0.1591,1,CCOC(=O)C1=C(COCCN)NC(C)=C(C1C1=CC=CC=C1Cl)C(=O)OC,InChIKey=HTIQEAQVCYTUBX-UHFFFAOYSA-N,1.87,10,NA,NA,NA,NA,NA,NA,NA,NA,NA,NA,NA,NA
Heparin,HMDB01394,3.275,0,m,NA,0.016,-6,CC(=O)N[C@@H]1[C@@H](O)[C@H](O)[C@@H](COS(O)(=O)=O)O[C@@H]1O[C@H]1[C@H](O)[C@@H](O)[C@H](O[C@@H]2[C@@H](O)O[C@H](O[C@H]3[C@H](O)[C@@H](OS(O)(=O)=O)C(O)O[C@H]3C(O)=O)[C@H](OS(O)(=O)=O)[C@H]2CS(O)(=O)=O)O[C@@H]1C(O)=O,InChIKey=ZFGMDIBRIDKWMY-PASTXAENSA-N,1.87,10,NA,NA,NA,NA,NA,NA,NA,NA,NA,NA,NA,NA
1.5-Anhydrosorbitol,HMDB02712,3.275,2,t,10.91,0.8208,0,OC[C@H]1OC[C@H](O)[C@@H](O)[C@@H]1O,InChIKey=MPCAJMNYNOGXPB-SLPGGIOYSA-N,1.86,-6.7,NaN,NaN,NaN,NaN,62.96666667,NaN,NaN,NaN,NaN,NaN,NaN,NaN
Phloretin,HMDB03306,3.275,2,t,NA,0.2694,0,OC1=CC=C(CCC(=O)C2=C(O)C=C(O)C=C2O)C=C1,InChIKey=VGEREEWJJVICBM-UHFFFAOYSA-N,14.58,-3,NaN,NaN,NaN,NaN,NaN,NaN,NaN,NaN,NaN,NaN,NaN,NaN
Myoinositol,HMDB00211,3.283,16,t,9.344,NA,0,O[C@H]1[C@H](O)[C@@H](O)[C@H](O)[C@H](O)[C@@H]1O,InChIKey=CDAISMWEOUEBRE-GPIVLXJGSA-N,11.92,7.06,NA,52.8,NaN,21.78,132.325,NaN,NaN,NaN,NaN,NaN,NaN,NaN
Heparan sulfate,HMDB00693,3.285,2,m,NA,0.4206,NA,NA,NA,-2,9.5,0.5,NaN,NaN,NaN,NaN,NaN,NaN,NaN,NaN,NaN,NaN,NaN
Glucose 6-phosphate,HMDB01401,3.285,2,dd,9.21 7.99,0.527,-2,OC1O[C@H](COP(O)(O)=O)[C@@H](O)[C@H](O)[C@H]1O,InChIKey=NBSCHQHZLSJFNQ-GASJEMHNSA-N,1.86,4.95,29.1,NaN,NaN,NaN,NaN,NaN,NaN,NaN,NaN,NaN,NaN,NaN
Glucosamine 6-sulfate,HMDB00592,3.285,1,dd,10.59 3.60,0.2146,0,N[C@H]1[C@H](O)O[C@H](COS(O)(=O)=O)[C@@H](O)[C@@H]1O,InChIKey=MTDHILKWIRSIHB-QZABAPFNSA-N,3.2,4.54,NA,NA,NA,NA,NA,NA,NA,NA,NA,NA,NA,NA
6-Dimethylaminopurine,HMDB00473,3.285,4,br. s.,NA,1,0,CN(C)C1=NC=NC2=C1NC=N2,InChIKey=BVIAOQMSVZHOJM-UHFFFAOYSA-N,14.93,-0.29,NaN,NaN,NaN,NaN,NaN,NaN,NaN,NaN,NaN,NaN,NaN,NaN
Argininosuccinic acid,HMDB00052,3.285,2,t,6.85,0.9822,-1,N[C@@H](CCCNC(=N)N[C@@H](CC(O)=O)C(O)=O)C(O)=O,InChIKey=KDZOASGQNOPSCU-WDSKDSINSA-N,0.83,-9.9,NaN,0.0032,NaN,NaN,NaN,NaN,NaN,NaN,NaN,NaN,NaN,NaN
D-Maltose,HMDB00163,3.285,1,dd,9.46 8.08,0.6322,0,OC[C@H]1O[C@H](O[C@H]2[C@H](O)[C@H](O)[C@@H](O)O[C@@H]2CO)[C@H](O)[C@@H](O)[C@@H]1O,InChIKey=GUBGYTABKSRVRQ-DKBJLJRDSA-N,7.93,9.34,NaN,NaN,NaN,NaN,NaN,NaN,NaN,NaN,NaN,NaN,NaN,NaN
L-Aspartyl-L-phenylalanine,HMDB00706,3.285,2,m,NA,0.1801,-1,N[C@@H](CC(O)=O)C(=O)N[C@@H](CC1=CC=CC=C1)C(O)=O,InChIKey=YZQCXOFQZKCETR-UWVGGRQHSA-N,0.63,-3.6,NaN,NaN,NaN,NaN,NaN,NaN,NaN,NaN,NaN,NaN,NaN,NaN
Loperamide,HMDB04999,3.285,2,br. s.,NA,0.1116,1,CN(C)C(=O)C(CCN1CCC(O)(CC1)C1=CC=C(Cl)C=C1)(C1=CC=CC=C1)C1=CC=CC=C1,InChIKey=RDOIQAHITMMDAJ-UHFFFAOYSA-N,1.87,10,NaN,NaN,NaN,NaN,NaN,NaN,NaN,NaN,NaN,NaN,NaN,NaN
Maltotetraose,HMDB01296,3.285,1,dd,9.30 8.14,0.2551,0,OC[C@H]1O[C@H](O[C@H]2[C@H](O)[C@@H](O)[C@@H](O[C@H]3[C@H](O)[C@@H](O)[C@@H](O[C@H]4[C@H](O)[C@@H](O)C(O)O[C@@H]4CO)O[C@@H]3CO)O[C@@H]2CO)[C@H](O)[C@@H](O)[C@@H]1O,InChIKey=LUEWUZLMQUOBSB-AYQJAVFRSA-N,3.23,5.58,NaN,NaN,NaN,NaN,NaN,NaN,NaN,NaN,NaN,NaN,NaN,NaN
Taurocholic acid,HMDB00036,3.295,2,dd,NA,0.2042,-1,[H][C@@]12C[C@H](O)CCC1(C)C1C[C@H](O)C3(C)C(CCC3C1[C@H](O)C2)C(C)CCC(=O)NCCS(O)(=O)=O,InChIKey=WBWWGRHZICKQGZ-BKXUXKPJSA-N,19.03,-2.8,0.38,NaN,NaN,NaN,NaN,NaN,NaN,NaN,NaN,NaN,NaN,NaN
1.3-Dimethyluracil,HMDB02144,3.295,3,s,NA,0.9027,0,CN1C=CC(=O)N(C)C1=O,InChIKey=JSDBKAHWADVXFU-UHFFFAOYSA-N,10.33,-3.5,NA,NA,NA,NA,NA,NA,NA,NA,NA,NA,NA,NA
Deacetyldiltiazem,HMDB02873,3.295,1,ddd,12.86 9.72 5.29,0.0169,1,COC1=CC=C(C=C1)[C@@H]1SC2=CC=CC=C2N(CCN(C)C)C(=O)[C@@H]1O,InChIKey=NZHUXMZTSSZXSB-MOPGFXCFSA-N,2.52,-4,NA,NA,NA,NA,NA,NA,NA,NA,NA,NA,NA,NA
Muramic acid,HMDB03254,3.295,1,dd,10.59 3.71,0.2132,0,C[C@@H](O[C@H]1[C@@H](N)[C@H](O)O[C@H](CO)[C@H]1O)C(O)=O,InChIKey=MSFSPUZXLOGKHJ-LEISLEKSSA-N,14.58,-3,NA,NA,NA,NA,NA,NA,NA,NA,NA,NA,NA,NA
1-Methyluric acid,HMDB03099,3.295,202,s,NA,0.1079,0,CN1C(=O)NC2=C(NC(=O)N2)C1=O,InChIKey=QFDRTQONISXGJA-UHFFFAOYSA-N,14.58,-7,NaN,NaN,NaN,NaN,NaN,0.51,NaN,NaN,NaN,NaN,NaN,NaN
2-Piperidinone,HMDB11749,3.295,28,m,NA,0.5212,0,O=C1CCCCN1,InChIKey=XUWHAWMETYGRKB-UHFFFAOYSA-N,1.86,-6.7,NaN,NaN,NaN,NaN,NaN,NaN,NaN,NaN,NaN,NaN,NaN,NaN
Alpha-Lactose,HMDB00186,3.295,1,t,8.6,0.3235,0,OC[C@H]1O[C@@H](O[C@H]2[C@H](O)[C@@H](O)[C@@H](O)O[C@@H]2CO)[C@H](O)[C@@H](O)[C@H]1O,InChIKey=GUBGYTABKSRVRQ-XLOQQCSPSA-N,1.87,10,NaN,1.45,NaN,NaN,NaN,NaN,NaN,NaN,NaN,NaN,NaN,NaN
Atenolol,HMDB01924,3.295,2,m,NA,0.1781,1,CC(C)NCC(O)COC1=CC=C(CC(N)=O)C=C1,InChIKey=METKIMKYRPQLGS-UHFFFAOYSA-N,15.74,-0.94,NaN,NaN,NaN,NaN,NaN,NaN,NaN,NaN,NaN,NaN,NaN,NaN
D-Glucuronic acid,HMDB00127,3.304,1,t,8.62,0.0445,-1,O[C@H]1O[C@@H]([C@@H](O)[C@H](O)[C@H]1O)C(O)=O,InChIKey=AEMOLEFTQBMNLQ-WAXACMCWSA-N,3.07,-3,NaN,36.07,NaN,NaN,NaN,NaN,NaN,NaN,NaN,NaN,NaN,NaN
Histamine,HMDB00870,3.305,2,t,7.11,1,1,NCCC1=CNC=N1,InChIKey=NTYJJOPFIAHURM-UHFFFAOYSA-N,0.83,-2.9,0.00067,10.411,NaN,3.44,0.2335,NaN,NaN,NaN,NaN,NaN,NaN,NaN
Estriol,HMDB00153,3.305,1,t,5.23,0.1646,0,[H][C@@]12C[C@@H](O)[C@H](O)[C@@]1(C)CC[C@]1([H])C3=C(CC[C@@]21[H])C=C(O)C=C3,InChIKey=PROQIPRRNZUXQM-ZXXIGWHRSA-N,2.84,5.54,0.006,NaN,NaN,NaN,NaN,0.0023,NaN,NaN,NaN,NaN,NaN,NaN
3-Phenylbutyric acid,HMDB01955,3.305,6,m,NA,0.1272,-1,CC(CC(O)=O)C1=CC=CC=C1,InChIKey=ZZEWMYILWXCRHZ-UHFFFAOYSA-N,14.22,10.21,NA,NA,NA,NA,NA,NA,NA,NA,NA,NA,NA,NA
1.9-Dimethyluric acid,HMDB02026,3.305,3,s,NA,0.9612,0,CN1C(=O)NC2=C1NC(=O)N(C)C2=O,InChIKey=UARKDOLETOEBCU-UHFFFAOYSA-N,4.82,-0.53,NaN,NaN,NaN,NaN,NaN,NaN,NaN,NaN,NaN,NaN,NaN,NaN
Ureidopropionic acid,HMDB00026,3.305,2,q,6.68,0.5956,-1,NC(=O)NCCC(O)=O,InChIKey=JSJWCHRYRHKBBW-UHFFFAOYSA-N,10.81,-2.9,NaN,1.733333333,NaN,NaN,NaN,NaN,NaN,NaN,NaN,NaN,NaN,NaN
L-Tryptophan,HMDB00929,3.307,12,dd,15.353 8.076,NA,0,N[C@@H](CC1=CNC2=CC=CC=C12)C(O)=O,InChIKey=QIVBCDIJIAJPQS-VIFPVBQESA-N,1.86,4.79,58.96666667,4.8066,NaN,2.65,7.335,NaN,NaN,NaN,NaN,NaN,NaN,NaN
1.3-Dimethyluric acid,HMDB01857,3.313,3,s,NA,0.9373,0,CN1C2=C(NC(=O)N2)C(=O)N(C)C1=O,InChIKey=OTSBKHHWSQYEHK-UHFFFAOYSA-N,1.88,6.69,NaN,1.5,NaN,NaN,NaN,NaN,NaN,NaN,NaN,NaN,NaN,NaN
3-Methylhistamine,HMDB01861,3.315,2,t,7.37,0.4891,2,CN1C=NC=C1CCN,InChIKey=CPAGZVLINCPJEH-UHFFFAOYSA-N,3.24,4.95,NaN,NaN,NaN,NaN,NaN,NaN,NaN,NaN,NaN,NaN,NaN,NaN
Phenylephrine,HMDB02182,3.315,2,m,NA,0.2883,1,CNC[C@H](O)C1=CC(O)=CC=C1,InChIKey=SONNWYBIRXJNDC-VIFPVBQESA-N,4.82,9.25,NaN,NaN,NaN,NaN,NaN,NaN,NaN,NaN,NaN,NaN,NaN,NaN
S-Adenosylhomocysteine,HMDB00939,3.315,1,dd,6.93 5.39,0.322,0,N[C@@H](CCSC[C@H]1O[C@H]([C@H](O)[C@@H]1O)N1C=NC2=C(N)N=CN=C12)C(O)=O,InChIKey=ZJUKTBDSGOFHSH-WFMPWKQPSA-N,9.43,1.41,NaN,NaN,NaN,NaN,0.01,NaN,NaN,NaN,NaN,NaN,NaN,NaN
Serotonin,HMDB00259,3.315,2,t,7.06,1,1,NCCC1=CNC2=CC=C(O)C=C12,InChIKey=QZAYGJVTTNCVMB-UHFFFAOYSA-N,4.51,-0.4,NaN,0.065,NaN,NaN,0.00345,NaN,NaN,NaN,NaN,NaN,NaN,NaN
SM(d18:1/18:0),HMDB01348,3.325,8,s,NA,0.165,0,CCCCCCCCCCCCCCCCCC(=O)N[C@@]([H])(COP(O)(=O)OCC[N+](C)(C)C)[C@]([H])(O)\C=C\CCCCCCCCCCCCC,InChIKey=LKQLRGMMMAHREN-YJFXYUILSA-O,1.86,-6.7,157.1,NaN,NaN,0.121,NaN,NaN,NaN,NaN,NaN,NaN,NaN,NaN
5-Methoxytryptophan,HMDB02339,3.325,2,m,NA,0.0551,0,COC1=CC2=C(NC=C2C[C@H](N)C(O)=O)C=C1,InChIKey=KVNPSKDDJARYKK-JTQLQIEISA-N,11.59,10,NA,NA,NA,NA,NA,NA,NA,NA,NA,NA,NA,NA
Coenzyme A,HMDB01423,3.325,2,t,6.6,0.393,-4,CC(C)(COP(O)(=O)OP(O)(=O)OC[C@H]1O[C@H]([C@H](O)[C@@H]1OP(O)(O)=O)N1C=NC2=C1N=CN=C2N)C(O)C(=O)NCCC(=O)NCCS,InChIKey=RGJOEKWQDUBAIZ-DRCCLKDXSA-N,16.92,3.22,NA,NA,NA,NA,NA,NA,NA,NA,NA,NA,NA,NA
Glucosamine 6-phosphate,HMDB01254,3.325,9,dd,10.52 3.57,0.4892,-1,N[C@H]1[C@@H](O)O[C@H](COP(O)(O)=O)[C@@H](O)[C@@H]1O,InChIKey=XHMJOUIAFHJHBW-UKFBFLRUSA-N,7.82,9.73,NA,NA,NA,NA,NA,NA,NA,NA,NA,NA,NA,NA
D-Xylose,HMDB00098,3.325,1,dd,11.45,0.6801,0,O[C@@H]1COC(O)[C@H](O)[C@H]1O,InChIKey=SRBFZHDQGSBBOR-IOVATXLUSA-N,14.58,-3,NaN,5.26,NaN,NaN,NaN,NaN,NaN,NaN,NaN,NaN,NaN,NaN
D-Xylose,HMDB00098,3.325,1,dd,10.71,0.6801,0,O[C@@H]1COC(O)[C@H](O)[C@H]1O,InChIKey=SRBFZHDQGSBBOR-IOVATXLUSA-N,14.58,-3,NaN,5.26,NaN,NaN,NaN,NaN,NaN,NaN,NaN,NaN,NaN,NaN
Rutin,HMDB03249,3.325,3,m,NA,1,-1,C[C@@H]1O[C@@H](OC[C@H]2O[C@@H](OC3=C(OC4=CC(O)=CC(O)=C4C3=O)C3=CC(O)=C(O)C=C3)[C@H](O)[C@@H](O)[C@@H]2O)[C@H](O)[C@H](O)[C@H]1O,InChIKey=IKGXIBQEEMLURG-NVPNHPEKSA-N,14.58,-3,NaN,NaN,NaN,NaN,NaN,NaN,NaN,NaN,NaN,NaN,NaN,NaN
Paraxanthine,HMDB01860,3.335,3,s,NA,1,0,CN1C=NC2=C1C(=O)N(C)C(=O)N2,InChIKey=QUNWUDVFRNGTCO-UHFFFAOYSA-N,11.3,8.36,10,2.5,NaN,NaN,NaN,NaN,NaN,NaN,NaN,NaN,NaN,NaN
Cellobiose,HMDB00055,3.335,5,m,NA,0.1872,0,OC[C@H]1O[C@@H](O[C@H]2[C@H](O)[C@@H](O)[C@H](O)O[C@@H]2CO)[C@H](O)[C@@H](O)[C@@H]1O,InChIKey=GUBGYTABKSRVRQ-QRZGKKJRSA-N,11.7,1.83,NA,NA,NA,NA,NA,NA,NA,NA,NA,NA,NA,NA
5-Methoxytryptamine,HMDB04095,3.335,2,t,7.07,0.2564,1,COC1=CC2=C(NC=C2CCN)C=C1,InChIKey=JTEJPPKMYBDEMY-UHFFFAOYSA-N,1.86,-6.7,NaN,NaN,NaN,NaN,NaN,NaN,NaN,NaN,NaN,NaN,NaN,NaN
L(-)-Nicotine pestanal,HMDB01934,3.345,1,m,NA,0.0678,1,CN1CCC[C@H]1C1=CN=CC=C1,InChIKey=SNICXCGAKADSCV-JTQLQIEISA-N,1.87,10,0.745,NaN,NaN,NaN,NaN,NaN,NaN,NaN,NaN,NaN,NaN,NaN
Beta-Leucine,HMDB03640,3.345,1,m,NA,0.1116,0,CC(C)[C@@H](N)CC(O)=O,InChIKey=GLUJNGJDHCTUJY-YFKPBYRVSA-N,14.58,-3,4.8,NaN,NaN,NaN,NaN,NaN,NaN,NaN,NaN,NaN,NaN,NaN
L-Proline,HMDB00162,3.345,1,dt,14.02 7.11,0.9889,0,OC(=O)[C@@H]1CCCN1,InChIKey=ONIBWKKTOPOVIA-BYPYZUCNSA-N,4.75,9.43,181.2666667,NA,NaN,NA,NA,NaN,NaN,NaN,NaN,NaN,NaN,NaN
Cysteineglutathione disulfide,HMDB00656,3.345,6,dd,14.34 4.37,0.2921,-1,N[C@@H](CCC(=O)N[C@@H](CSSCC(N)C(O)=O)C(=O)NCC(O)=O)C(O)=O,InChIKey=BNRXZEPOHPEEAS-PPSBICQBSA-N,5.04,-1.4,NaN,NaN,NaN,NaN,NaN,NaN,NaN,NaN,NaN,NaN,NaN,NaN
Theophylline,HMDB01889,3.355,3,s,NA,0.9921,0,CN1C2=C(NC=N2)C(=O)N(C)C1=O,InChIKey=ZFXYFBGIUFBOJW-UHFFFAOYSA-N,0.83,-3.7,29,0.18,NaN,NaN,NaN,NaN,NaN,NaN,NaN,NaN,NaN,NaN
Methanol,HMDB01875,3.355,99,s,NA,1,0,CO,InChIKey=OKKJLVBELUTLKV-UHFFFAOYSA-N,0.82,4.95,77.4,NaN,NaN,NA,44,NaN,NaN,NaN,NaN,NaN,NaN,NaN
11a-Hydroxyprogesterone,HMDB00920,3.355,1,m,NA,0.031,0,[H][C@@]12CCC(C(C)=O)[C@@]1(C)C[C@@H](O)[C@@]1([H])[C@@]2([H])CCC2=CC(=O)CC[C@]12C,InChIKey=BFZHCUBIASXHPK-ODYOLWGQSA-N,16.38,10.67,NA,NA,NA,NA,NA,NA,NA,NA,NA,NA,NA,NA
Adenylsuccinic acid,HMDB00536,3.355,2,s,NA,0.0219,-4,O[C@@H]1[C@@H](COP(O)(O)=O)O[C@H]([C@@H]1O)N1C=NC2=C1N=CN=C2NC(CC(O)=O)C(O)=O,InChIKey=OFBHPPMPBOJXRT-DPXQIYNJSA-N,1.86,-3,NA,NA,NA,NA,NA,NA,NA,NA,NA,NA,NA,NA
Biocytin,HMDB03134,3.355,5,m,NA,0.324,0,[H][C@]12CS[C@@H](CCCCC(=O)NCCCC[C@H](N)C(O)=O)[C@@]1([H])NC(=O)N2,InChIKey=BAQMYDQNMFBZNA-MNXVOIDGSA-N,14.58,-3,NA,NA,NA,NA,NA,NA,NA,NA,NA,NA,NA,NA
Hesperidin,HMDB03265,3.355,6,m,NA,1,0,COC1=CC=C(C=C1O)[C@@H]1CC(=O)C2=C(O1)C=C(OC1O[C@H](CO[C@H]3O[C@@H](C)[C@@H](O)[C@@H](O)[C@H]3O)[C@H](O)[C@H](O)[C@H]1O)C=C2O,InChIKey=QUQPHWDTPGMPEX-UNZJSITISA-N,14.58,-3,NA,NA,NA,NA,NA,NA,NA,NA,NA,NA,NA,NA
1.3.7-Trimethyluric acid,HMDB02123,3.355,3,s,NA,1,0,CN1C(=O)NC2=C1C(=O)N(C)C(=O)N2C,InChIKey=BYXCFUMGEBZDDI-UHFFFAOYSA-N,16.33,-3,NaN,0.63,NaN,NaN,NaN,NaN,NaN,NaN,NaN,NaN,NaN,NaN
1.5-Anhydrosorbitol,HMDB02712,3.355,3,m,NA,1,0,OC[C@H]1OC[C@H](O)[C@@H](O)[C@@H]1O,InChIKey=MPCAJMNYNOGXPB-SLPGGIOYSA-N,1.86,-6.7,NaN,NaN,NaN,NaN,62.96666667,NaN,NaN,NaN,NaN,NaN,NaN,NaN
Hypotaurine,HMDB00965,3.355,2,t,6.93,1,0,NCCS(O)=O,InChIKey=VVIUBCNYACGLLV-UHFFFAOYSA-N,1.87,3.19,NaN,NaN,NaN,NaN,NaN,NaN,NaN,NaN,NaN,NaN,NaN,NaN
Metoprolol,HMDB01932,3.355,3,s,NA,1,1,COCCC1=CC=C(OCC(O)CNC(C)C)C=C1,InChIKey=IUBSYMUCCVWXPE-UHFFFAOYSA-N,0.83,7.85,NaN,NaN,NaN,NaN,NaN,NaN,NaN,NaN,NaN,NaN,NaN,NaN
o-Tyrosine,HMDB06050,3.355,1,dd,14.53 4.68,0.1278,0,NC(CC1=CC=CC=C1O)C(O)=O,InChIKey=WRFPVMFCRNYQNR-UHFFFAOYSA-N,1.08,-3.6,NaN,NaN,NaN,NaN,NaN,NaN,NaN,NaN,NaN,NaN,NaN,NaN
Theobromine,HMDB02825,3.355,3,s,NA,0.9586,0,CN1C=NC2=C1C(=O)NC(=O)N2C,InChIKey=YAPQBXQYLJRXSA-UHFFFAOYSA-N,2.84,-3.6,NaN,0.5,NaN,NaN,NaN,NaN,NaN,NaN,NaN,NaN,NaN,NaN
Tryptamine,HMDB00303,3.355,2,t,7.03,1,1,NCCC1=CNC2=CC=CC=C12,InChIKey=APJYDQYYACXCRM-UHFFFAOYSA-N,4.39,-0.16,NaN,0.026,NaN,NaN,NaN,NaN,NaN,NaN,NaN,NaN,NaN,NaN
L-Thyronine,HMDB00667,3.365,1,dd,8.28 4.48,0.1142,0,N[C@@H](CC1=CC=C(OC2=CC=C(O)C=C2)C=C1)C(O)=O,InChIKey=KKCIOUWDFWQUBT-AWEZNQCLSA-N,3.41,9.57,0.29,0.0024,NaN,NaN,NaN,NaN,NaN,NaN,NaN,NaN,NaN,NaN
3.7-Dimethyluric acid,HMDB01982,3.365,3,s,NA,1,0,CN1C(=O)NC2=C1C(=O)NC(=O)N2C,InChIKey=HMLZLHKHNBLLJD-UHFFFAOYSA-N,1.94,-4.9,NaN,NaN,NaN,NaN,NaN,NaN,NaN,NaN,NaN,NaN,NaN,NaN
Arachidyl alcohol,HMDB11619,3.365,2,m,NA,0.0215,0,CCCCCCCCCCCCCCCCCCCCO,InChIKey=BTFJIXJJCSYFAL-UHFFFAOYSA-N,1.86,-3,NaN,NaN,NaN,NaN,NaN,NaN,NaN,NaN,NaN,NaN,NaN,NaN
Propranolol,HMDB01849,3.365,2,m,NA,0.1659,1,CC(C)NCC(O)COC1=CC=CC2=CC=CC=C12,InChIKey=AQHHHDLHHXJYJD-UHFFFAOYSA-N,3.16,-4.2,NaN,NaN,NaN,NaN,NaN,NaN,NaN,NaN,NaN,NaN,NaN,NaN
4-Hydroxyproline,HMDB00725,3.375,2,ddd,12.59 1.97 1.42,1,0,O[C@H]1CN[C@@H](C1)C(O)=O,InChIKey=PMMYEEVYMWASQN-DMTCNVIQSA-N,13.86,4,12.4,NA,NaN,0.93,NaN,NaN,NaN,NaN,NaN,NaN,NaN,NaN
Amylose,HMDB03403,3.375,15,s,NA,1,NA,NA,NA,14.58,-3,NA,NA,NA,NA,NA,NA,NA,NA,NA,NA,NA,NA
Heparin,HMDB01394,3.375,0,m,NA,-0.0016,-6,CC(=O)N[C@@H]1[C@@H](O)[C@H](O)[C@@H](COS(O)(=O)=O)O[C@@H]1O[C@H]1[C@H](O)[C@@H](O)[C@H](O[C@@H]2[C@@H](O)O[C@H](O[C@H]3[C@H](O)[C@@H](OS(O)(=O)=O)C(O)O[C@H]3C(O)=O)[C@H](OS(O)(=O)=O)[C@H]2CS(O)(=O)=O)O[C@@H]1C(O)=O,InChIKey=ZFGMDIBRIDKWMY-PASTXAENSA-N,1.87,10,NA,NA,NA,NA,NA,NA,NA,NA,NA,NA,NA,NA
Uvaol,HMDB02391,3.375,1,m,NA,0.3075,0,[H][C@@]12[C@@H](C)[C@H](C)CC[C@]1(CO)CC[C@]1(C)C2=CC[C@]2([H])[C@@]3(C)CC[C@H](O)C(C)(C)[C@]3([H])CC[C@@]12C,InChIKey=XUARCIYIVXVTAE-ZAPOICBTSA-N,13.56,-6.6,NA,NA,NA,NA,NA,NA,NA,NA,NA,NA,NA,NA
Doxylamine,HMDB01936,3.377,2,td,5.89 3.81,0.0667,1,CN(C)CCOC(C)(C1=CC=CC=C1)C1=NC=CC=C1,InChIKey=HCFDWZZGGLSKEP-UHFFFAOYSA-N,4.63,8.61,NA,NA,NA,NA,NA,NA,NA,NA,NA,NA,NA,NA
Methylguanidine,HMDB01522,3.381,3,s,NA,0.08,1,CNC(N)=N,InChIKey=CHJJGSNFBQVOTG-UHFFFAOYSA-N,3.52,-0.19,NA,0.696666667,NaN,NA,NA,NaN,NaN,NaN,NaN,NaN,NaN,NaN
3.5-Diiodo-L-tyrosine,HMDB03474,3.385,1,dd,7.43 4.84,0.164,0,N[C@@H](CC1=CC(I)=C(O)C(I)=C1)C(O)=O,InChIKey=NYPYHUZRZVSYKL-ZETCQYMHSA-N,14.58,-3,0.0036,4.90E-05,NaN,NaN,NaN,NaN,NaN,NaN,NaN,NaN,NaN,NaN
D-Mannose,HMDB00169,3.385,5,ddd,9.605 6.370 2.176,NA,0,OC[C@H]1OC(O)[C@@H](O)[C@@H](O)[C@@H]1O,InChIKey=WQZGKKKJIJFFOK-QTVWNMPRSA-N,3.66,9.48,39,1.25,NaN,NaN,44,NaN,NaN,NaN,NaN,NaN,NaN,NaN
Hydroxycobalamin,HMDB02308,3.385,0,d,NA,0.0044,2,[Co++].O.OC[C@H]1O[C@@]([H])([C@H](O)[C@]1([H])OP(=O)([O-])O[C@H](C)CNC(=O)CC[C@]1(C)[C@@H](CC(=O)N)[C@@]2([H])[N-]\C1=C(C)/C1=N/C(=C\C3=N\C(=C(C)/C4=N[C@]2(C)[C@@](C)(CC(=O)N)[C@@H]4CCC(=O)N)\[C@@](C)(CC(=O)N)[C@@H]3CCC(=O)N)/C(C)(C)[C@@H]1CCC(=O)N)N1C=NC2=C1C=C(C)C(C)=C2,InChIKey=DQOCFCZRZOAIBN-WZHZPDAFSA-L,2.45,-1.9,NA,NA,NA,NA,NA,NA,NA,NA,NA,NA,NA,NA
Loratadine,HMDB05000,3.385,2,m,NA,0.024,0,CCOC(=O)N1CCC(CC1)=C1C2=C(CCC3=CC=CN=C13)C=C(Cl)C=C2,InChIKey=JCCNYMKQOSZNPW-UHFFFAOYSA-N,1.87,10,NaN,NaN,NaN,NaN,NaN,NaN,NaN,NaN,NaN,NaN,NaN,NaN
Naringin,HMDB02927,3.385,3,m,NA,0.0522,0,C[C@@H]1O[C@@H](O[C@@H]2[C@@H](O)[C@H](O)[C@@H](CO)O[C@H]2OC2=CC(O)=C3C(=O)C[C@H](OC3=C2)C2=CC=C(O)C=C2)[C@H](O)[C@H](O)[C@H]1O,InChIKey=DFPMSGMNTNDNHN-ZPHOTFPESA-N,3.04,-3.3,NaN,NaN,NaN,NaN,NaN,NaN,NaN,NaN,NaN,NaN,NaN,NaN
Rhamnose,HMDB00849,3.391,1,m,NA,0.1943,0,C[C@@H]1OC(O)[C@H](O)[C@H](O)[C@H]1O,InChIKey=SHZGCJCMOBCMKK-JFNONXLTSA-N,0.89,-1.5,NaN,NaN,NaN,NaN,NaN,NaN,NaN,NaN,NaN,NaN,NaN,NaN
3.4-Dihydroxybenzeneacetic acid,HMDB01336,3.395,2,s,NA,1,-1,OC(=O)CC1=CC=C(O)C(O)=C1,InChIKey=CFFZDZCDUFSOFZ-UHFFFAOYSA-N,4.92,2.94,0.019,2.41,NaN,NaN,0.0025,NaN,NaN,NaN,NaN,NaN,NaN,NaN
L-Cystine,HMDB00192,3.395,1,dd,14.99 3.91,0.0301,0,N[C@@H](CSSC[C@H](N)C(O)=O)C(O)=O,InChIKey=LEVWYRKDKASIDU-IMJSIDKUSA-N,11.31,-5.5,62.9,4.912,NaN,NaN,0.195,NaN,NaN,NaN,NaN,NaN,NaN,NaN
2.3-Diaminopropionic acid,HMDB02006,3.395,7,dd,6.93 3.18,1,0,NC[C@H](N)C(O)=O,InChIKey=PECYZEOJVXMISF-REOHCLBHSA-N,0.83,4.99,NaN,NaN,NaN,NaN,NaN,NaN,NaN,NaN,NaN,NaN,NaN,NaN
Cysteineglutathione disulfide,HMDB00656,3.395,6,dd,14.89 3.82,0.3248,-1,N[C@@H](CCC(=O)N[C@@H](CSSCC(N)C(O)=O)C(=O)NCC(O)=O)C(O)=O,InChIKey=BNRXZEPOHPEEAS-PPSBICQBSA-N,5.04,-1.4,NaN,NaN,NaN,NaN,NaN,NaN,NaN,NaN,NaN,NaN,NaN,NaN
Metoprolol,HMDB01932,3.395,1,m,NA,NA,1,COCCC1=CC=C(OCC(O)CNC(C)C)C=C1,InChIKey=IUBSYMUCCVWXPE-UHFFFAOYSA-N,0.83,7.85,NaN,NaN,NaN,NaN,NaN,NaN,NaN,NaN,NaN,NaN,NaN,NaN
Venlafaxine,HMDB05016,3.395,1,m,NA,0.0261,1,COC1=CC=C(C=C1)C(CN(C)C)C1(O)CCCCC1,InChIKey=PNVNVHUZROJLTJ-UHFFFAOYSA-N,1.87,10,NaN,NaN,NaN,NaN,NaN,NaN,NaN,NaN,NaN,NaN,NaN,NaN
2-Pyrrolidinone,HMDB02039,3.405,1,t,6.95,1,0,O=C1CCCN1,InChIKey=HNJBEVLQSNELDL-UHFFFAOYSA-N,19.4,-4.2,0.0975,NaN,NaN,NaN,NaN,NaN,NaN,NaN,NaN,NaN,NaN,NaN
Pantothenic acid,HMDB00210,3.405,1,d,11.25,0.166,-1,CC(C)(CO)C(O)C(=O)NCCC(O)=O,InChIKey=GHOKWGTUZJEAQD-UHFFFAOYSA-N,1.74,-3,4.91,NaN,NaN,0.433,3.25,NaN,NaN,NaN,NaN,NaN,NaN,NaN
1.3.7-Trimethyluric acid,HMDB02123,3.405,3,s,NA,0.9742,0,CN1C(=O)NC2=C1C(=O)N(C)C(=O)N2C,InChIKey=BYXCFUMGEBZDDI-UHFFFAOYSA-N,16.33,-3,NaN,0.63,NaN,NaN,NaN,NaN,NaN,NaN,NaN,NaN,NaN,NaN
Glucose 1-phosphate,HMDB01586,3.405,13,t,9.63,0.7894,-2,OC[C@H]1OC(OP(O)(O)=O)[C@H](O)[C@@H](O)[C@@H]1O,InChIKey=HXXFSFRBOHSIMQ-GASJEMHNSA-N,4.95,-4,NaN,NaN,NaN,NaN,NaN,NaN,NaN,NaN,NaN,NaN,NaN,NaN
N-Acetylmannosamine,HMDB01129,3.405,1,ddd,NA,0.0459,0,[H][C@@]1(O)O[C@H](CO)[C@@H](O)[C@H](O)[C@@H]1NC(C)=O,InChIKey=OVRNDRQMDRJTHS-OZRXBMAMSA-N,2.86,2.89,NaN,NaN,NaN,NaN,NaN,NaN,NaN,NaN,NaN,NaN,NaN,NaN
D-Glucose,HMDB00122,3.413,14,m,NA,NA,0,OC[C@H]1OC(O)[C@H](O)[C@@H](O)[C@@H]1O,InChIKey=WQZGKKKJIJFFOK-GASJEMHNSA-N,1.89,-6.6,4935.2875,17.15333333,NaN,NA,2340,NaN,NaN,NaN,NaN,NaN,NaN,NaN
5-Hydroxy-L-tryptophan,HMDB00472,3.415,10,dd,15.33 4.71,0.2823,0,NC(CC1=CNC2=C1C=C(O)C=C2)C(O)=O,InChIKey=LDCYZAJDBXYCGN-UHFFFAOYSA-N,4.65,9.53,0.018,0.0078,NaN,NaN,NaN,NaN,NaN,NaN,NaN,NaN,NaN,NaN
Pipecolic acid,HMDB00070,3.415,1,d,12.72,0.5826,0,OC(=O)C1CCCCN1,InChIKey=HXEACLLIILLPRG-UHFFFAOYSA-N,2.8,-3.6,1.83,0.114,NaN,NaN,0.403,NaN,NaN,NaN,NaN,NaN,NaN,NaN
1.3-Dimethyluracil,HMDB02144,3.415,3,s,NA,1,0,CN1C=CC(=O)N(C)C1=O,InChIKey=JSDBKAHWADVXFU-UHFFFAOYSA-N,10.33,-3.5,NA,NA,NA,NA,NA,NA,NA,NA,NA,NA,NA,NA
Itaconic acid,HMDB02092,3.415,3,s,NA,1,-2,OC(=O)CC(=C)C(O)=O,InChIKey=LVHBHZANLOWSRM-UHFFFAOYSA-N,0.83,-3.6,NA,NA,NA,NA,NA,NA,NA,NA,NA,NA,NA,NA
3.7-Dimethyluric acid,HMDB01982,3.415,3,s,NA,0.9898,0,CN1C(=O)NC2=C1C(=O)NC(=O)N2C,InChIKey=HMLZLHKHNBLLJD-UHFFFAOYSA-N,1.94,-4.9,NaN,NaN,NaN,NaN,NaN,NaN,NaN,NaN,NaN,NaN,NaN,NaN
Alpha-D-Glucose,HMDB03345,3.415,2,m,NA,0.5955,0,OC[C@H]1O[C@H](O)[C@H](O)[C@@H](O)[C@@H]1O,InChIKey=WQZGKKKJIJFFOK-DVKNGEFBSA-N,14.58,-3,NaN,NaN,NaN,NaN,NaN,NaN,NaN,NaN,NaN,NaN,NaN,NaN