Metabolite,HMDB Name,Shift (ppm),Hs,Type,J (Hz),Height,Physiological Charge,SMILES,InChlKey,pKa (Strongest Acidic),pKa (Strongest Basic),Blood,Urine,Feces,Saliva,Cerebrospinal Fluid (CSF),Amniotic Fluid,Aqueous Humour,Ascites Fluid,Breast Milk,Lymph,Sweat,Tears
Serotonin,HMDB00259,3.115,2,t,7.06,0.7389,1,NCCC1=CNC2=CC=C(O)C=C12,InChIKey=QZAYGJVTTNCVMB-UHFFFAOYSA-N,4.51,-0.4,NaN,0.065,NaN,NaN,0.00345,NaN,NaN,NaN,NaN,NaN,NaN,NaN
L-Cystathionine,HMDB00099,3.125,2,m,14.79 14.60 1.33,0.4226,0,N[C@@H](CCSC[C@H](N)C(O)=O)C(O)=O,InChIKey=ILRYLPWNYFXEMH-WHFBIAKZSA-N,14.58,-3,0.2275,1.69,NaN,NaN,NaN,NaN,NaN,NaN,NaN,NaN,NaN,NaN
Malonic acid,HMDB00691,3.125,2,s,NA,1,-2,OC(=O)CC(O)=O,InChIKey=OFOBLEOULBTSOW-UHFFFAOYSA-N,14.81,-3.7,11.16,0.6,NaN,NaN,NaN,NaN,NaN,NaN,NaN,NaN,NaN,NaN
Allocystathionine,HMDB00455,3.125,2,m,14.76 14.60 1.35,0.529,0,N[C@@H](CCSCC(N)C(O)=O)C(O)=O,InChIKey=ILRYLPWNYFXEMH-ROLXFIACSA-N,11.7,-3,NA,NA,NA,NA,NA,NA,NA,NA,NA,NA,NA,NA
Hesperidin,HMDB03265,3.125,2,m,NA,0.0439,0,COC1=CC=C(C=C1O)[C@@H]1CC(=O)C2=C(O1)C=C(OC1O[C@H](CO[C@H]3O[C@@H](C)[C@@H](O)[C@@H](O)[C@H]3O)[C@H](O)[C@H](O)[C@H]1O)C=C2O,InChIKey=QUQPHWDTPGMPEX-UNZJSITISA-N,14.58,-3,NA,NA,NA,NA,NA,NA,NA,NA,NA,NA,NA,NA
Ondansetron,HMDB05035,3.125,1,m,NA,0.008,1,CN1C2=C(C3=CC=CC=C13)C(=O)C(CN1C=CN=C1C)CC2,InChIKey=FELGMEQIXOGIFQ-UHFFFAOYSA-N,1.87,10,NA,NA,NA,NA,NA,NA,NA,NA,NA,NA,NA,NA
1.3-Diaminopropane,HMDB00002,3.125,4,t,7.83,1,2,NCCCN,InChIKey=XFNJVJPLKCPIBV-UHFFFAOYSA-N,3.19,10.47,NaN,0.908333333,NaN,NaN,NaN,NaN,NaN,NaN,NaN,NaN,NaN,NaN
Cysteineglutathione disulfide,HMDB00656,3.125,7,dd,14.94 8.44,0.3186,-1,N[C@@H](CCC(=O)N[C@@H](CSSCC(N)C(O)=O)C(=O)NCC(O)=O)C(O)=O,InChIKey=BNRXZEPOHPEEAS-PPSBICQBSA-N,5.04,-1.4,NaN,NaN,NaN,NaN,NaN,NaN,NaN,NaN,NaN,NaN,NaN,NaN
Liothyronine,HMDB00265,3.135,1,dd,14.31 4.46,0.0637,0,N[C@@H](CC1=CC(I)=C(OC2=CC=C(O)C(I)=C2)C(I)=C1)C(O)=O,InChIKey=AUYYCJSJGJYCDS-LBPRGKRZSA-N,1.86,-2.8,NaN,NaN,NaN,0,NaN,NaN,NaN,NaN,NaN,NaN,NaN,NaN
Verapamil,HMDB01850,3.135,1,td,NA,0.028,1,COC1=C(OC)C=C(CCN(C)CCCC(C#N)(C(C)C)C2=CC(OC)=C(OC)C=C2)C=C1,InChIKey=SGTNSNPWRIOYBX-UHFFFAOYSA-N,12.45,-0.16,NaN,NaN,NaN,NaN,NaN,NaN,NaN,NaN,NaN,NaN,NaN,NaN
Anabasine,HMDB04350,3.145,1,m,NA,0.0334,1,C1CCC(NC1)C1=CN=CC=C1,InChIKey=MTXSIJUGVMTTMU-UHFFFAOYSA-N,1.86,-4.8,0.0031,4.4,NaN,NaN,NaN,NaN,NaN,NaN,NaN,NaN,NaN,NaN
Ethanolamine,HMDB00149,3.145,1,d,5.21,1,1,NCCO,InChIKey=HZAXFHJVJLSVMW-UHFFFAOYSA-N,0.66,-2.2,1.6,21.77,NaN,135.99,11.265,NaN,NaN,NaN,NaN,NaN,NaN,NaN
5-Methoxytryptamine,HMDB04095,3.145,2,t,7.07,0.2265,1,COC1=CC2=C(NC=C2CCN)C=C1,InChIKey=JTEJPPKMYBDEMY-UHFFFAOYSA-N,1.86,-6.7,NaN,NaN,NaN,NaN,NaN,NaN,NaN,NaN,NaN,NaN,NaN,NaN
Naringin,HMDB02927,3.145,1,m,NA,0.0199,0,C[C@@H]1O[C@@H](O[C@@H]2[C@@H](O)[C@H](O)[C@@H](CO)O[C@H]2OC2=CC(O)=C3C(=O)C[C@H](OC3=C2)C2=CC=C(O)C=C2)[C@H](O)[C@H](O)[C@H]1O,InChIKey=DFPMSGMNTNDNHN-ZPHOTFPESA-N,3.04,-3.3,NaN,NaN,NaN,NaN,NaN,NaN,NaN,NaN,NaN,NaN,NaN,NaN
Dimethyl sulfone,HMDB04983,3.153,6,s,NA,1,0,CS(C)(=O)=O,InChIKey=HHVIBTZHLRERCL-UHFFFAOYSA-N,1.86,-3,NaN,4.6,NaN,13.53,2,NaN,NaN,NaN,NaN,NaN,NaN,NaN
Thyroxine,HMDB00248,3.155,1,dd,14.31 4.51,0.0752,0,N[C@@H](CC1=CC(I)=C(OC2=CC(I)=C(O)C(I)=C2)C(I)=C1)C(O)=O,InChIKey=XUIIKFGFIJCVMT-LBPRGKRZSA-N,16.07,-5.9,2.00E-05,0.00032,NaN,0,NaN,NaN,NaN,NaN,NaN,NaN,NaN,NaN
L-Dopa,HMDB00181,3.155,2,dd,14.64 4.99,0.3871,0,N[C@@H](CC1=CC(O)=C(O)C=C1)C(O)=O,InChIKey=WTDRDQBEARUVNC-LURJTMIESA-N,0.76,-3.6,0.00723,0.0136,NaN,NaN,NaN,NaN,NaN,NaN,NaN,NaN,NaN,NaN
Citrulline,HMDB00904,3.155,1,q,6.64,1,0,N[C@@H](CCCNC(N)=O)C(O)=O,InChIKey=RHGKLRLOHDJJDR-BYPYZUCNSA-N,1.5,-7,38,0.3775,NaN,51.82,3.31,NaN,NaN,NaN,NaN,NaN,NaN,NaN
Imipramine,HMDB01848,3.155,14,s,NA,0.7518,1,CN(C)CCCN1C2=CC=CC=C2CCC2=CC=CC=C12,InChIKey=BCGWQEUPMDMJNV-UHFFFAOYSA-N,2.98,9.73,NA,NA,NA,NA,NA,NA,NA,NA,NA,NA,NA,NA
3.4-Dihydroxyhydrocinnamic acid,HMDB00423,3.155,1,dd,14.65 5.04,0.3008,-1,OC(=O)CCC1=CC=C(O)C(O)=C1,InChIKey=DZAUWHJDUNRCTF-UHFFFAOYSA-N,8.88,5.16,NaN,0.27,NaN,NaN,NaN,NaN,NaN,NaN,NaN,NaN,NaN,NaN
3-Chlorotyrosine,HMDB01885,3.155,1,dd,14.77 5.52,0.2611,0,NC(CC1=CC(Cl)=C(O)C=C1)C(O)=O,InChIKey=ACWBBAGYTKWBCD-UHFFFAOYSA-N,18.22,-0.88,NaN,7.00E-04,NaN,NaN,NaN,NaN,NaN,NaN,NaN,NaN,NaN,NaN
DL-Dopa,HMDB00609,3.155,2,dd,14.69 5.06,0.2972,0,NC(CC1=CC=C(O)C(O)=C1)C(O)=O,InChIKey=WTDRDQBEARUVNC-UHFFFAOYSA-N,4.26,10.29,NaN,NaN,NaN,NaN,NaN,NaN,NaN,NaN,NaN,NaN,NaN,NaN
Iodotyrosine,HMDB00021,3.165,1,dd,14.72 5.18,0.3244,0,N[C@@H](CC1=CC=C(O)C(I)=C1)C(O)=O,InChIKey=UQTZMGFTRHFAAM-ZETCQYMHSA-N,18.27,-1.4,0.00069,NaN,NaN,NaN,NaN,NaN,NaN,NaN,NaN,NaN,NaN,NaN
5-Hydroxylysine,HMDB00450,3.165,12,m,NA,0.883,1,NC[C@H](O)CC[C@H](N)C(O)=O,InChIKey=YSMODUONRAFBET-UHNVWZDZSA-N,1.87,-3,2.5,0.555,NaN,NaN,NaN,NaN,NaN,NaN,NaN,NaN,NaN,NaN
3a.6a.7b-Trihydroxy-5b-cholanoic acid,HMDB00364,3.165,1,m,NA,0.0414,-1,[H][C@@]12CC[C@H]([C@H](C)CCC(O)=O)[C@@]1(C)CC[C@@]1([H])[C@@]2([H])[C@@H](O)[C@H](O)[C@]2([H])C[C@H](O)CC[C@]12C,InChIKey=DKPMWHFRUGMUKF-NTPBNISXSA-N,1.08,-3.4,NA,NA,NA,NA,NA,NA,NA,NA,NA,NA,NA,NA
Venlafaxine,HMDB05016,3.165,1,m,NA,0.0081,1,COC1=CC=C(C=C1)C(CN(C)C)C1(O)CCCCC1,InChIKey=PNVNVHUZROJLTJ-UHFFFAOYSA-N,1.87,10,NaN,NaN,NaN,NaN,NaN,NaN,NaN,NaN,NaN,NaN,NaN,NaN
Aldosterone,HMDB00037,3.175,2,ddd,NA,0.0534,0,C[C@]12CCC(=O)C=C1CCC1C3CC[C@H](C(=O)CO)[C@]3(C[C@H](O)C21)C=O,InChIKey=PQSUYGKTWSAVDQ-SRPWZAMTSA-N,4.03,-3,6.80E-05,0.01,NaN,NA,NaN,NaN,NaN,NaN,NaN,NaN,NaN,NaN
Methylmalonic acid,HMDB00202,3.175,1,q,7.27,0.2692,-2,CC(C(O)=O)C(O)=O,InChIKey=ZIYVHBGGAOATLY-UHFFFAOYSA-N,15.73,-7,0.165666667,1.963333333,NaN,NaN,0.41,NaN,NaN,NaN,NaN,NaN,NaN,NaN
1-Methylhistidine,HMDB00001,3.175,2,dd,NA,0.1115,0,CN1C=NC(C[C@H](N)C(O)=O)=C1,InChIKey=BRMWTNUJHUMWMS-LURJTMIESA-N,1.86,-3,13.1,23.87,NaN,26.34,4,NaN,NaN,NaN,NaN,NaN,NaN,NaN
L-Histidine,HMDB00177,3.175,1,dd,15.55 7.75,0.4393,0,N[C@@H](CC1=CNC=N1)C(O)=O,InChIKey=HNDVDQJCIGZPNO-YFKPBYRVSA-N,14.58,-3,118.7666667,60.60726667,NaN,NA,11.4,NaN,NaN,NaN,NaN,NaN,NaN,NaN
4-(Methylnitrosamino)-1-(3-pyridyl)-1-butanone,HMDB11603,3.175,3,s,NA,1,0,CN(CCCC(=O)C1=CC=CN=C1)N=O,InChIKey=FLAQQSHRLBFIEZ-UHFFFAOYSA-N,1.86,-3,NaN,NaN,NaN,NaN,NaN,NaN,NaN,NaN,NaN,NaN,NaN,NaN
9-Methyluric acid,HMDB01973,3.175,3,s,NA,0.4917,0,CN1C(=O)NC2=C1NC(=O)NC2=O,InChIKey=XJEJWDFDVPDMAS-UHFFFAOYSA-N,6.97,-3.7,NaN,NaN,NaN,NaN,NaN,NaN,NaN,NaN,NaN,NaN,NaN,NaN
Beta-Alanine,HMDB00056,3.185,2,t,6.81,1,0,NCCC(O)=O,InChIKey=UCMIRNVEIXFBKS-UHFFFAOYSA-N,0.91,-3,3.4,1.49,NaN,NaN,0.024,NaN,NaN,NaN,NaN,NaN,NaN,NaN
L-Tyrosine,HMDB00158,3.185,0,dd,NA,0.0064,0,N[C@@H](CC1=CC=C(O)C=C1)C(O)=O,InChIKey=OUYCCCASQSFEME-QMMMGPOBSA-N,4.22,-3.3,99.625,10.466,NaN,NA,9.125,NaN,NaN,NaN,NaN,NaN,NaN,NaN
N-Acetyl-L-phenylalanine,HMDB00512,3.185,1,dd,13.93 4.92,0.0543,-1,CC(=O)N[C@@H](CC1=CC=CC=C1)C(O)=O,InChIKey=CBQJSKKFNMDLON-JTQLQIEISA-N,4.15,9.5,NaN,NaN,NaN,NaN,NaN,NaN,NaN,NaN,NaN,NaN,NaN,NaN
Tryptamine,HMDB00303,3.185,2,t,7.03,0.8466,1,NCCC1=CNC2=CC=CC=C12,InChIKey=APJYDQYYACXCRM-UHFFFAOYSA-N,4.39,-0.16,NaN,0.026,NaN,NaN,NaN,NaN,NaN,NaN,NaN,NaN,NaN,NaN
Dihydrothymine,HMDB00079,3.189,1,dd,12.76 10.06,0.153,0,CC1CNC(=O)NC1=O,InChIKey=NBAKTGXDIBVZOO-UHFFFAOYSA-N,1.51,-3.7,NaN,2.7,NaN,NaN,NaN,NaN,NaN,NaN,NaN,NaN,NaN,NaN
L-Octanoylcarnitine,HMDB00791,3.195,9,s,NA,1,0,CCCCCCCC(=O)O[C@H](CC([O-])=O)C[N+](C)(C)C,InChIKey=CXTATJFJDMJMIY-CYBMUJFWSA-N,3.6,3.19,0.1755,NaN,NaN,NaN,NaN,NaN,NaN,NaN,NaN,NaN,NaN,NaN
5-Methoxydimethyltryptamine,HMDB02004,3.195,2,t,NA,0.082,1,COC1=CC2=C(NC=C2CCN(C)C)C=C1,InChIKey=ZSTKHSQDNIGFLM-UHFFFAOYSA-N,0.83,4.99,0.21,0.02,NaN,NaN,NaN,NaN,NaN,NaN,NaN,NaN,NaN,NaN
Taurocholic acid,HMDB00036,3.195,1,m,NA,0.0684,-1,[H][C@@]12C[C@H](O)CCC1(C)C1C[C@H](O)C3(C)C(CCC3C1[C@H](O)C2)C(C)CCC(=O)NCCS(O)(=O)=O,InChIKey=WBWWGRHZICKQGZ-BKXUXKPJSA-N,19.03,-2.8,0.38,NaN,NaN,NaN,NaN,NaN,NaN,NaN,NaN,NaN,NaN,NaN
L-Acetylcarnitine,HMDB00201,3.195,9,s,NA,1,0,CC(=O)OC(CC([O-])=O)C[N+](C)(C)C,InChIKey=RDHQFKQIGNGIED-UHFFFAOYSA-N,4.95,-2.2,5.48,NaN,NaN,0.973,NaN,NaN,NaN,NaN,NaN,NaN,NaN,NaN
L-Cystine,HMDB00192,3.195,1,dd,14.94 8.10,0.0306,0,N[C@@H](CSSC[C@H](N)C(O)=O)C(O)=O,InChIKey=LEVWYRKDKASIDU-IMJSIDKUSA-N,11.31,-5.5,62.9,4.912,NaN,NaN,0.195,NaN,NaN,NaN,NaN,NaN,NaN,NaN
Ondansetron,HMDB05035,3.195,1,dd,NA,0.0103,1,CN1C2=C(C3=CC=CC=C13)C(=O)C(CN1C=CN=C1C)CC2,InChIKey=FELGMEQIXOGIFQ-UHFFFAOYSA-N,1.87,10,NA,NA,NA,NA,NA,NA,NA,NA,NA,NA,NA,NA
2-Methylbutyroylcarnitine,HMDB00378,3.195,6,s,NA,1,0,CCC(C)C(=O)OC(CC([O-])=O)C[N+](C)(C)C,InChIKey=IHCPDBBYTYJYIL-UHFFFAOYSA-N,1.86,-1.3,NaN,NaN,NaN,NaN,NaN,NaN,NaN,NaN,NaN,NaN,NaN,NaN
4-(Methylnitrosamino)-1-(3-pyridyl)-1-butanone,HMDB11603,3.195,2,t,6.9,0.2286,0,CN(CCCC(=O)C1=CC=CN=C1)N=O,InChIKey=FLAQQSHRLBFIEZ-UHFFFAOYSA-N,1.86,-3,NaN,NaN,NaN,NaN,NaN,NaN,NaN,NaN,NaN,NaN,NaN,NaN
Hexanoylcarnitine,HMDB00705,3.195,5,s,NA,1,0,CCCCCC(=O)OC(CC([O-])=O)C[N+](C)(C)C,InChIKey=VVPRQWTYSNDTEA-UHFFFAOYSA-N,11.39,-6.3,NaN,NaN,NaN,NaN,NaN,NaN,NaN,NaN,NaN,NaN,NaN,NaN
Homocarnosine,HMDB00745,3.195,6,dd,15.14 4.70,0.0955,0,NCCCC(=O)N[C@@H](CC1=CNC=N1)C(O)=O,InChIKey=CCLQKVKJOGVQLU-QMMMGPOBSA-N,-1.3,-1.2,NaN,NaN,NaN,NaN,NaN,NaN,NaN,NaN,NaN,NaN,NaN,NaN
Isobutyryl-L-carnitine,HMDB00736,3.195,34,s,NA,1,0,CC(C)C(=O)OC(CC([O-])=O)C[N+](C)(C)C,InChIKey=LRCNOZRCYBNMEP-UHFFFAOYSA-N,3.65,-3,NaN,NaN,NaN,NaN,NaN,NaN,NaN,NaN,NaN,NaN,NaN,NaN
Thiamine,HMDB00235,3.195,2,t,5.74,0.2456,1,CC1=C(CCO)SC=[N+]1CC1=C(N)N=C(C)N=C1,InChIKey=JZRWCGZRTZMZEH-UHFFFAOYSA-N,4.66,-3,NaN,0.22,NaN,0.247,0.0735,NaN,NaN,NaN,NaN,NaN,NaN,NaN
Choline,HMDB00097,3.204,66,s,NA,1,1,C[N+](C)(C)CCO,InChIKey=OEYIOHPDSNJKLS-UHFFFAOYSA-N,2.53,2.66,12.55,NaN,NaN,NA,5.65,NaN,NaN,NaN,NaN,NaN,NaN,NaN
Norepinephrine,HMDB00216,3.205,13,m,NA,0.3676,1,NC[C@H](O)C1=CC(O)=C(O)C=C1,InChIKey=SFLSHLFXELFNJZ-QMMMGPOBSA-N,10.28,-1.2,0.001416667,0.026433333,NaN,NaN,0.0107,NaN,NaN,NaN,NaN,NaN,NaN,NaN
Decanoylcarnitine,HMDB00651,3.205,8,s,NA,1,0,CCCCCCCCCC(=O)OC(CC([O-])=O)C[N+](C)(C)C,InChIKey=LZOSYCMHQXPBFU-UHFFFAOYSA-N,5,-6.2,0.2005,NaN,NaN,NaN,NaN,NaN,NaN,NaN,NaN,NaN,NaN,NaN
Carnosine,HMDB00033,3.205,1,dd,15.2,0.1337,0,NCCC(=O)N[C@@H](CC1=CN=CN1)C(O)=O,InChIKey=CQOVPNPJLQNMDC-ZETCQYMHSA-N,1.86,8.86,6.54,1.84,NaN,NaN,NaN,NaN,NaN,NaN,NaN,NaN,NaN,NaN
Carnosine,HMDB00033,3.205,1,dd,4.94,0.1337,0,NCCC(=O)N[C@@H](CC1=CN=CN1)C(O)=O,InChIKey=CQOVPNPJLQNMDC-ZETCQYMHSA-N,1.86,8.86,6.54,1.84,NaN,NaN,NaN,NaN,NaN,NaN,NaN,NaN,NaN,NaN
L-Phenylalanine,HMDB00159,3.205,1,m,NA,0.3716,0,N[C@@H](CC1=CC=CC=C1)C(O)=O,InChIKey=COLNVLDHVKWLRT-QMMMGPOBSA-N,3.72,-2.8,86.86,4.467,NaN,NA,9.05,NaN,NaN,NaN,NaN,NaN,NaN,NaN
3a.6b.7b-Trihydroxy-5b-cholanoic acid,HMDB00415,3.205,1,m,NA,0.087,-1,[H][C@@]12CC[C@H]([C@H](C)CCC(O)=O)[C@@]1(C)CC[C@@]1([H])[C@@]2([H])[C@@H](O)[C@@H](O)[C@]2([H])C[C@H](O)CC[C@]12C,InChIKey=DKPMWHFRUGMUKF-CRKPLTDNSA-N,3.85,-3,NA,NA,NA,NA,NA,NA,NA,NA,NA,NA,NA,NA
Biocytin,HMDB03134,3.205,10,q,6.39,0.6199,0,[H][C@]12CS[C@@H](CCCCC(=O)NCCCC[C@H](N)C(O)=O)[C@@]1([H])NC(=O)N2,InChIKey=BAQMYDQNMFBZNA-MNXVOIDGSA-N,14.58,-3,NA,NA,NA,NA,NA,NA,NA,NA,NA,NA,NA,NA
Metoprolol,HMDB01932,3.205,1,t,9.87,0.0302,1,COCCC1=CC=C(OCC(O)CNC(C)C)C=C1,InChIKey=IUBSYMUCCVWXPE-UHFFFAOYSA-N,0.83,7.85,NaN,NaN,NaN,NaN,NaN,NaN,NaN,NaN,NaN,NaN,NaN,NaN
N6-Acetyl-L-lysine,HMDB00206,3.205,2,q,6.61,0.205,0,CC(=O)NCCCC[C@H](N)C(O)=O,InChIKey=DTERQYGMUDWYAZ-ZETCQYMHSA-N,9.77,-1.4,NaN,NaN,NaN,NaN,NaN,NaN,NaN,NaN,NaN,NaN,NaN,NaN
L-Hexanoylcarnitine,HMDB00756,3.215,9,s,NA,0.6121,0,CCCCCC(=O)O[C@H](CC([O-])=O)C[N+](C)(C)C,InChIKey=VVPRQWTYSNDTEA-LLVKDONJSA-N,4.17,-3.3,0.08,NaN,NaN,NaN,NaN,NaN,NaN,NaN,NaN,NaN,NaN,NaN
3-Methoxytyrosine,HMDB01434,3.215,9,dd,14.53 5.15,0.0503,0,COC1=CC(CC(N)C(O)=O)=CC=C1O,InChIKey=PFDUUKDQEHURQC-UHFFFAOYSA-N,1.83,-3.6,0.089,0.06,NaN,NaN,NaN,NaN,NaN,NaN,NaN,NaN,NaN,NaN
L-Palmitoylcarnitine,HMDB00222,3.215,19,s,NA,1,0,CCCCCCCCCCCCCCCC(=O)O[C@H](CC([O-])=O)C[N+](C)(C)C,InChIKey=XOMRRQXKHMYMOC-OAQYLSRUSA-N,1.62,-0.58,0.113,0.5,NaN,0.034,NaN,NaN,NaN,NaN,NaN,NaN,NaN,NaN
Isovalerylcarnitine,HMDB00688,3.215,9,s,NA,0.6053,0,CC(C)CC(=O)OC(CC([O-])=O)C[N+](C)(C)C,InChIKey=IGQBPDJNUXPEMT-UHFFFAOYSA-N,11.6,9.4,0.138,NaN,NaN,0.073,NaN,NaN,NaN,NaN,NaN,NaN,NaN,NaN
3-Nitrotyrosine,HMDB01904,3.215,1,dd,NA,0.4263,-1,N[C@@H](CC1=CC(=C(O)C=C1)[N+]([O-])=O)C(O)=O,InChIKey=FBTSQILOGYXGMD-LURJTMIESA-N,3.73,-1.4,0.85,NaN,NaN,NaN,3.36,NaN,NaN,NaN,NaN,NaN,NaN,NaN
Homo-L-arginine,HMDB00670,3.215,2,t,6.94,1,1,N[C@@H](CCCCNC(N)=N)C(O)=O,InChIKey=QUOGESRFPZDMMT-YFKPBYRVSA-N,1.14,-3.7,3.56,0.98,NaN,NaN,NaN,NaN,NaN,NaN,NaN,NaN,NaN,NaN
Glycerophosphocholine,HMDB00086,3.215,9,s,NA,0.2688,0,C[N+](C)(C)CCOP([O-])(=O)OC[C@@H](O)CO,InChIKey=SUHOQUVVVLNYQR-QMMMGPOBSA-N,3.55,-3,NaN,NaN,NaN,9.82,3.9,NaN,NaN,NaN,NaN,NaN,NaN,NaN
Loperamide,HMDB04999,3.215,2,m,NA,NA,1,CN(C)C(=O)C(CCN1CCC(O)(CC1)C1=CC=C(Cl)C=C1)(C1=CC=CC=C1)C1=CC=CC=C1,InChIKey=RDOIQAHITMMDAJ-UHFFFAOYSA-N,1.87,10,NaN,NaN,NaN,NaN,NaN,NaN,NaN,NaN,NaN,NaN,NaN,NaN
N-Acetylputrescine,HMDB02064,3.215,1,t,6.78,0.3107,1,CC(=O)NCCCCN,InChIKey=KLZGKIDSEJWEDW-UHFFFAOYSA-N,17.45,-9.7,NaN,1.19,NaN,NaN,NaN,NaN,NaN,NaN,NaN,NaN,NaN,NaN
3.5-Diiodothyronine,HMDB00582,3.225,1,dd,NA,0.0018,0,NC(CC1=CC(I)=C(OC2=CC=C(O)C=C2)C(I)=C1)C(O)=O,InChIKey=ZHSOTLOTTDYIIK-UHFFFAOYSA-N,12.59,-1.1,1.60E-05,1.80E-05,NaN,NaN,NaN,NaN,NaN,NaN,NaN,NaN,NaN,NaN
Allantoin,HMDB00462,3.225,9,s,NA,1,0,NC(=O)NC1NC(=O)NC1=O,InChIKey=POJWUDADGALRAB-UHFFFAOYSA-N,2.35,-3.8,2.1,10.65666667,NaN,18.9,9.3,NaN,NaN,NaN,NaN,NaN,NaN,NaN
Anserine,HMDB00194,3.225,3,m,NA,0.1825,0,CN1C=NC=C1C[C@H](NC(=O)CCN)C(O)=O,InChIKey=MYYIAHXIVFADCU-QMMMGPOBSA-N,0.9,-3.6,41,NA,NaN,NaN,NaN,NaN,NaN,NaN,NaN,NaN,NaN,NaN
Citicoline,HMDB01413,3.225,9,s,NA,1,-1,C[N+](C)(C)CCOP([O-])(=O)OP(O)(=O)OC[C@H]1O[C@H]([C@H](O)[C@@H]1O)N1C=CC(N)=NC1=O,InChIKey=RZZPDXZPRHQOCG-OJAKKHQRSA-N,2.12,-3.8,NA,NA,NA,NA,NA,NA,NA,NA,NA,NA,NA,NA
1.9-Dimethyluric acid,HMDB02026,3.225,3,s,NA,1,0,CN1C(=O)NC2=C1NC(=O)N(C)C2=O,InChIKey=UARKDOLETOEBCU-UHFFFAOYSA-N,4.82,-0.53,NaN,NaN,NaN,NaN,NaN,NaN,NaN,NaN,NaN,NaN,NaN,NaN
D-Xylose,HMDB00098,3.225,1,dd,9.33,0.6939,0,O[C@@H]1COC(O)[C@H](O)[C@H]1O,InChIKey=SRBFZHDQGSBBOR-IOVATXLUSA-N,14.58,-3,NaN,5.26,NaN,NaN,NaN,NaN,NaN,NaN,NaN,NaN,NaN,NaN
D-Xylose,HMDB00098,3.225,1,dd,7.9,0.6939,0,O[C@@H]1COC(O)[C@H](O)[C@H]1O,InChIKey=SRBFZHDQGSBBOR-IOVATXLUSA-N,14.58,-3,NaN,5.26,NaN,NaN,NaN,NaN,NaN,NaN,NaN,NaN,NaN,NaN
Pseudoephedrine,HMDB01943,3.225,8,m,NA,0.0735,1,CN[C@@H](C)[C@@H](O)C1=CC=CC=C1,InChIKey=KWGRBVOPPLSCSI-WCBMZHEXSA-N,1.79,-0.1,NaN,NaN,NaN,NaN,NaN,NaN,NaN,NaN,NaN,NaN,NaN,NaN
5-Hydroxy-L-tryptophan,HMDB00472,3.235,10,dd,15.37 8.14,0.2922,0,NC(CC1=CNC2=C1C=C(O)C=C2)C(O)=O,InChIKey=LDCYZAJDBXYCGN-UHFFFAOYSA-N,4.65,9.53,0.018,0.0078,NaN,NaN,NaN,NaN,NaN,NaN,NaN,NaN,NaN,NaN
Dopamine,HMDB00073,3.235,2,t,7.24,1,1,NCCC1=CC=C(O)C(O)=C1,InChIKey=VYFYYTLLBUKUHU-UHFFFAOYSA-N,2.61,2.09,22.5,0.142333333,NaN,NaN,0.00325,NaN,NaN,NaN,NaN,NaN,NaN,NaN
1.3.7-Trimethyluric acid,HMDB02123,3.235,3,s,NA,0.9736,0,CN1C(=O)NC2=C1C(=O)N(C)C(=O)N2C,InChIKey=BYXCFUMGEBZDDI-UHFFFAOYSA-N,16.33,-3,NaN,0.63,NaN,NaN,NaN,NaN,NaN,NaN,NaN,NaN,NaN,NaN
2-Methylbutyroylcarnitine,HMDB00378,3.235,3,s,NA,0.4679,0,CCC(C)C(=O)OC(CC([O-])=O)C[N+](C)(C)C,InChIKey=IHCPDBBYTYJYIL-UHFFFAOYSA-N,1.86,-1.3,NaN,NaN,NaN,NaN,NaN,NaN,NaN,NaN,NaN,NaN,NaN,NaN
Loratadine,HMDB05000,3.235,2,br. s.,NA,0.0068,0,CCOC(=O)N1CCC(CC1)=C1C2=C(CCC3=CC=CN=C13)C=C(Cl)C=C2,InChIKey=JCCNYMKQOSZNPW-UHFFFAOYSA-N,1.87,10,NaN,NaN,NaN,NaN,NaN,NaN,NaN,NaN,NaN,NaN,NaN,NaN
Verapamil,HMDB01850,3.235,2,m,NA,0.0848,1,COC1=C(OC)C=C(CCN(C)CCCC(C#N)(C(C)C)C2=CC(OC)=C(OC)C=C2)C=C1,InChIKey=SGTNSNPWRIOYBX-UHFFFAOYSA-N,12.45,-0.16,NaN,NaN,NaN,NaN,NaN,NaN,NaN,NaN,NaN,NaN,NaN,NaN
L-Arginine,HMDB00517,3.245,5,t,6.93,1,1,N[C@@H](CCCN=C(N)N)C(O)=O,InChIKey=ODKSFYDXXFIFQN-BYPYZUCNSA-N,12.21,-0.95,116.45,NA,NaN,35.73,18.2075,NaN,NaN,NaN,NaN,NaN,NaN,NaN
L-Histidine,HMDB00177,3.245,1,dd,16.10 4.93,0.4509,0,N[C@@H](CC1=CNC=N1)C(O)=O,InChIKey=HNDVDQJCIGZPNO-YFKPBYRVSA-N,14.58,-3,118.7666667,60.60726667,NaN,NA,11.4,NaN,NaN,NaN,NaN,NaN,NaN,NaN
Azythromycin,HMDB01916,3.245,3,s,NA,0.2752,2,CC[C@@H]1OC(=O)[C@H](C)[C@@H](O[C@@H]2C[C@](C)(OC)[C@H](O)[C@@H](C)O2)[C@@H](C)[C@H](O[C@H]2O[C@@H](C)C[C@H]([C@@H]2O)N(C)C)[C@@](C)(O)C[C@H](C)CN(C)[C@@H](C)[C@@H](O)[C@]1(C)O,InChIKey=MQTOSJVFKKJCRP-HHZDEWPHSA-N,3.84,1.99,NA,NA,NA,NA,NA,NA,NA,NA,NA,NA,NA,NA
D-Arginine,HMDB03416,3.245,2,t,6.88,1,1,N[C@H](CCCNC(N)=N)C(O)=O,InChIKey=ODKSFYDXXFIFQN-SCSAIBSYSA-N,14.58,-3,NA,NA,NA,NA,NA,NA,NA,NA,NA,NA,NA,NA
16-a-Hydroxypregnenolone,HMDB00315,3.245,1,m,NA,0.0307,0,[H][C@@]12C[C@@H](O)[C@H](C(C)=O)[C@@]1(C)CC[C@@]1([H])[C@@]2([H])CC=C2C[C@@H](O)CC[C@]12C,InChIKey=ZAKJZPQDUPCXSD-YRWKUUEZSA-N,18.3,-0.16,NaN,NaN,NaN,NaN,NaN,NaN,NaN,NaN,NaN,NaN,NaN,NaN
17a-Hydroxypregnenolone,HMDB00363,3.245,1,m,NA,0.0416,0,[H][C@@]12CC[C@](O)(C(C)=O)[C@@]1(C)CC[C@@]1([H])[C@@]2([H])CC=C2C[C@@H](O)CC[C@]12C,InChIKey=JERGUCIJOXJXHF-TVWVXWENSA-N,4.56,-0.76,NaN,NaN,NaN,NaN,NaN,NaN,NaN,NaN,NaN,NaN,NaN,NaN
Acetylcholine,HMDB00895,3.245,8,s,NA,1,1,CC(=O)OCC[N+](C)(C)C,InChIKey=OIPILFWXSMYKGL-UHFFFAOYSA-N,1.23,-0.005,NaN,NaN,NaN,8.56,NaN,NaN,NaN,NaN,NaN,NaN,NaN,NaN
Alpha-D-Glucose,HMDB03345,3.245,1,dd,9.41 7.98,0.4846,0,OC[C@H]1O[C@H](O)[C@H](O)[C@@H](O)[C@@H]1O,InChIKey=WQZGKKKJIJFFOK-DVKNGEFBSA-N,14.58,-3,NaN,NaN,NaN,NaN,NaN,NaN,NaN,NaN,NaN,NaN,NaN,NaN
Cysteamine,HMDB02991,3.245,1,t,6.43,0.7215,1,NCCS,InChIKey=UFULAYFCSOUIOV-UHFFFAOYSA-N,0.89,-1.3,NaN,NaN,NaN,NaN,NaN,NaN,NaN,NaN,NaN,NaN,NaN,NaN
Diethanolamine,HMDB04437,3.245,4,m,NA,1,1,OCCNCCO,InChIKey=ZBCBWPMODOFKDW-UHFFFAOYSA-N,1.86,-6.7,NaN,NaN,NaN,NaN,NaN,NaN,NaN,NaN,NaN,NaN,NaN,NaN
D-Glucose,HMDB00122,3.248,9,dd,9.220 8.067,NA,0,OC[C@H]1OC(O)[C@H](O)[C@@H](O)[C@@H]1O,InChIKey=WQZGKKKJIJFFOK-GASJEMHNSA-N,1.89,-6.6,4935.2875,17.15333333,NaN,NA,2340,NaN,NaN,NaN,NaN,NaN,NaN,NaN
Tyramine,HMDB00306,3.249,2,t,7.28,1,1,NCCC1=CC=C(O)C=C1,InChIKey=DZGWFCGJZKJUFP-UHFFFAOYSA-N,10.78,-6.3,0.004995,0.315666667,NaN,NaN,NaN,NaN,NaN,NaN,NaN,NaN,NaN,NaN
Symmetric dimethylarginine,HMDB03334,3.255,2,q,6.62,0.1323,1,CN\C(NCCC[C@H](N)C(O)=O)=N/C,InChIKey=HVPFXCBJHIIJGS-LURJTMIESA-N,14.58,-3,0.502,12.4,NaN,0.35,NaN,NaN,NaN,NaN,NaN,NaN,NaN,NaN
3-Methylhistidine,HMDB00479,3.255,3,m,NA,0.1111,0,CN1C=NC=C1C[C@H](N)C(O)=O,InChIKey=JDHILDINMRGULE-LURJTMIESA-N,1.82,5.16,2.7,5.26,NaN,27.68,NaN,NaN,NaN,NaN,NaN,NaN,NaN,NaN
Carnosine,HMDB00033,3.255,2,dt,6.48,0.332,0,NCCC(=O)N[C@@H](CC1=CN=CN1)C(O)=O,InChIKey=CQOVPNPJLQNMDC-ZETCQYMHSA-N,1.86,8.86,6.54,1.84,NaN,NaN,NaN,NaN,NaN,NaN,NaN,NaN,NaN,NaN
Carnosine,HMDB00033,3.255,2,dt,3.85,0.332,0,NCCC(=O)N[C@@H](CC1=CN=CN1)C(O)=O,InChIKey=CQOVPNPJLQNMDC-ZETCQYMHSA-N,1.86,8.86,6.54,1.84,NaN,NaN,NaN,NaN,NaN,NaN,NaN,NaN,NaN,NaN
16b-Hydroxyestradiol,HMDB00347,3.255,1,t,7.4,0.1383,0,[H][C@@]12C[C@H](O)[C@H](O)[C@@]1(C)CC[C@]1([H])C3=C(CC[C@@]21[H])C=C(O)C=C3,InChIKey=PROQIPRRNZUXQM-ZMSHIADSSA-N,11.47,-3.8,NaN,NaN,NaN,NaN,NaN,NaN,NaN,NaN,NaN,NaN,NaN,NaN
Aspartame,HMDB01894,3.255,1,m,NA,0.0589,0,COC(=O)[C@H](CC1=CC=CC=C1)NC(=O)[C@@H](N)CC(O)=O,InChIKey=IAOZJIPTCAWIRG-QWRGUYRKSA-N,13.45,-2.7,NaN,NaN,NaN,NaN,NaN,NaN,NaN,NaN,NaN,NaN,NaN,NaN
O-Phosphoethanolamine,HMDB00224,3.255,1,t,5,0.192,-1,NCCOP(O)(O)=O,InChIKey=SUHOOTKUPISOBE-UHFFFAOYSA-N,9.21,-4.9,NaN,6.238,NaN,NaN,6.15,NaN,NaN,NaN,NaN,NaN,NaN,NaN
Indolelactic acid,HMDB00671,3.264,1,ddd,14.85 4.26 0.70,0.4033,-1,OC(CC1=CNC2=C1C=CC=C2)C(O)=O,InChIKey=XGILAAMKEQUXLS-UHFFFAOYSA-N,7.6,5,2.8,0.46,NaN,NaN,NaN,NaN,NaN,NaN,NaN,NaN,NaN,NaN
1-Methylhistamine,HMDB00898,3.265,2,t,7.08,0.5985,1,CN1C=NC(CCN)=C1,InChIKey=FHQDWPCFSJMNCT-UHFFFAOYSA-N,1.78,-1.2,0.00034,0.097666667,NaN,0.0117,0.002,NaN,NaN,NaN,NaN,NaN,NaN,NaN
Normetanephrine,HMDB00819,3.265,3,m,NA,0.1568,1,COC1=CC(=CC=C1O)C(O)CN,InChIKey=YNYAYWLBAHXHLL-UHFFFAOYSA-N,3.51,-3.7,0.00035,NA,NaN,NaN,NaN,NaN,NaN,NaN,NaN,NaN,NaN,NaN
Norepinephrine,HMDB00216,3.265,13,m,NA,0.3816,1,NC[C@H](O)C1=CC(O)=C(O)C=C1,InChIKey=SFLSHLFXELFNJZ-QMMMGPOBSA-N,10.28,-1.2,0.001416667,0.026433333,NaN,NaN,0.0107,NaN,NaN,NaN,NaN,NaN,NaN,NaN
Stearoylcarnitine,HMDB00848,3.265,9,s,NA,0.1781,0,CCCCCCCCCCCCCCCCCC(=O)OC(CC([O-])=O)C[N+](C)(C)C,InChIKey=FNPHNLNTJNMAEE-UHFFFAOYSA-N,0.83,5,0.06,NaN,NaN,NaN,NaN,NaN,NaN,NaN,NaN,NaN,NaN,NaN