Metabolite,HMDB Name,Shift (ppm),Hs,Type,J (Hz),Height,Physiological Charge,SMILES,InChlKey,pKa (Strongest Acidic),pKa (Strongest Basic),Blood,Urine,Feces,Saliva,Cerebrospinal Fluid (CSF),Amniotic Fluid,Aqueous Humour,Ascites Fluid,Breast Milk,Lymph,Sweat,Tears
Quercetin,HMDB05794,6.432,1,s,NA,0.914,-1,OC1=CC(O)=C2C(OC(=C(O)C2=O)C2=CC(O)=C(O)C=C2)=C1,InChIKey=REFJWTPEDVJJIY-UHFFFAOYSA-N,1.87,10,0.045,0.0065,NaN,NaN,NaN,NaN,NaN,NaN,NaN,NaN,NaN,NaN
Estriol,HMDB00153,6.435,1,d,2.42,0.1954,0,[H][C@@]12C[C@@H](O)[C@H](O)[C@@]1(C)CC[C@]1([H])C3=C(CC[C@@]21[H])C=C(O)C=C3,InChIKey=PROQIPRRNZUXQM-ZXXIGWHRSA-N,2.84,5.54,0.006,NaN,NaN,NaN,NaN,0.0023,NaN,NaN,NaN,NaN,NaN,NaN
Folic acid,HMDB00121,6.435,1,d,8.43,0.5553,-2,NC1=NC(=O)C2=NC(CNC3=CC=C(C=C3)C(=O)N[C@@H](CCC(O)=O)C(O)=O)=CN=C2N1,InChIKey=OVBPIULPVIDEAO-LBPRGKRZSA-N,11.25,-3.7,0.039333333,NA,NaN,NaN,0.053,NaN,NaN,NaN,NaN,NaN,NaN,NaN
17-Epiestriol,HMDB00356,6.435,1,d,1.98,0.1999,0,C[C@]12CCC3C(CCC4=C3C=CC(O)=C4)C1C[C@@H](O)[C@H]2O,InChIKey=PROQIPRRNZUXQM-MAHASAQBSA-N,4.09,-3.5,NA,NA,NA,NA,NA,NA,NA,NA,NA,NA,NA,NA
Luteolin,HMDB05800,6.445,1,d,NA,0.031,-1,OC1=CC2=C(C(O)=C1)C(=O)C=C(O2)C1=CC=C(O)C(O)=C1,InChIKey=IQPNAANSBPBGFQ-UHFFFAOYSA-N,1.87,10,NA,NA,NA,NA,NA,NA,NA,NA,NA,NA,NA,NA
16b-Hydroxyestradiol,HMDB00347,6.445,1,d,2.26,0.1666,0,[H][C@@]12C[C@H](O)[C@H](O)[C@@]1(C)CC[C@]1([H])C3=C(CC[C@@]21[H])C=C(O)C=C3,InChIKey=PROQIPRRNZUXQM-ZMSHIADSSA-N,11.47,-3.8,NaN,NaN,NaN,NaN,NaN,NaN,NaN,NaN,NaN,NaN,NaN,NaN
Canthaxanthin,HMDB03154,6.445,2,d,14.91,0.056,0,C\C(\C=C\C=C(/C)\C=C\C1=C(C)C(=O)CCC1(C)C)=C/C=C/C=C(\C)/C=C/C=C(\C)/C=C/C1=C(C)C(=O)CCC1(C)C,InChIKey=FDSDTBUPSURDBL-DKLMTRRASA-N,14.58,-3,NaN,NaN,NaN,NaN,NaN,NaN,NaN,NaN,NaN,NaN,NaN,NaN
Estradiol,HMDB00151,6.445,1,d,2.2,0.1277,0,[H][C@@]12CC[C@H](O)[C@@]1(C)CC[C@]1([H])C3=C(CC[C@@]21[H])C=C(O)C=C3,InChIKey=VOXZDWNPVJITMN-ZBRFXRBCSA-N,1.86,-6.7,NaN,NaN,NaN,NA,NaN,NaN,NaN,NaN,NaN,NaN,NaN,NaN
2-Methoxyestradiol,HMDB00405,6.455,1,s,NA,0.2276,0,[H][C@@]12CC[C@H](O)[C@@]1(C)CC[C@]1([H])C3=C(CC[C@@]21[H])C=C(O)C(OC)=C3,InChIKey=CQOQDQWUFQDJMK-SSTWWWIQSA-N,4.02,-1.4,0.01,NaN,NaN,NaN,NaN,NaN,NaN,NaN,NaN,NaN,NaN,NaN
6-Hydroxydopamine,HMDB01537,6.455,1,s,NA,0.1139,1,NCCC1=C(O)C=C(O)C(O)=C1,InChIKey=DIVDFFZHCJEHGG-UHFFFAOYSA-N,4.26,-0.19,NaN,NaN,NaN,NaN,NaN,NaN,NaN,NaN,NaN,NaN,NaN,NaN
Coumarin,HMDB01218,6.455,1,d,9.52,0.4519,0,O=C1OC2=CC=CC=C2C=C1,InChIKey=ZYGHJZDHTFUPRJ-UHFFFAOYSA-N,18.92,-7.1,NaN,NaN,NaN,NaN,NaN,NaN,NaN,NaN,NaN,NaN,NaN,NaN
Deoxyadenosine,HMDB00101,6.455,1,t,6.92,0.3214,0,NC1=NC=NC2=C1N=CN2[C@H]1C[C@H](O)[C@@H](CO)O1,InChIKey=OLXZPDWKRNYJJZ-RRKCRQDMSA-N,1.86,-6.7,NaN,0.22,NaN,NaN,NaN,NaN,NaN,NaN,NaN,NaN,NaN,NaN
16a-Hydroxyestrone,HMDB00335,6.465,1,d,2.59,0.0642,0,[H][C@@]12C[C@@H](O)C(=O)[C@@]1(C)CC[C@]1([H])C3=C(CC[C@@]21[H])C=C(O)C=C3,InChIKey=WPOCIZJTELRQMF-QFXBJFAPSA-N,4.48,9.66,NaN,NaN,NaN,NaN,NaN,NaN,NaN,NaN,NaN,NaN,NaN,NaN
Mesaconic acid,HMDB00749,6.475,1,q,1.3,0.1431,-2,C\C(=C/C(O)=O)C(O)=O,InChIKey=HNEGQIOMVPPMNR-NSCUHMNNSA-N,3.14,-3.5,NA,NA,NA,NA,NA,NA,NA,NA,NA,NA,NA,NA
2-Methoxyestrone,HMDB00010,6.475,1,s,NA,0.1646,0,[H][C@@]12CCC(=O)[C@@]1(C)CC[C@]1([H])C3=C(CC[C@@]21[H])C=C(O)C(OC)=C3,InChIKey=WHEUWNKSCXYKBU-QPWUGHHJSA-N,1.87,10,NaN,0.005,NaN,NaN,NaN,NaN,NaN,NaN,NaN,NaN,NaN,NaN
17a-Estradiol,HMDB00429,6.485,1,d,2.59,0.1177,0,[H][C@@]12CC[C@@H](O)[C@@]1(C)CC[C@]1([H])C3=C(CC[C@@]21[H])C=C(O)C=C3,InChIKey=VOXZDWNPVJITMN-SFFUCWETSA-N,1.22,-6.1,NaN,2.3,NaN,NaN,NaN,NaN,NaN,NaN,NaN,NaN,NaN,NaN
Sumiki's acid,HMDB02432,6.485,24,d,3.39,0.328,-1,OCC1=CC=C(O1)C(O)=O,InChIKey=PCSKKIUURRTAEM-UHFFFAOYSA-N,17.11,-6.6,NaN,NaN,NaN,NaN,NaN,NaN,NaN,NaN,NaN,NaN,NaN,NaN
Phenylpyruvic acid,HMDB00205,6.495,1,s,NA,0.1129,-1,OC(=O)C(=O)CC1=CC=CC=C1,InChIKey=BTNMPGBKDVTSJY-UHFFFAOYSA-N,2.98,-3.8,0.5,NaN,NaN,NaN,NaN,NaN,NaN,NaN,NaN,NaN,NaN,NaN
Ethenodeoxyadenosine,HMDB01786,6.495,1,t,6.77,0.3808,0,OC[C@H]1O[C@H](C[C@@H]1O)N1C=NC2=C1N=CN1C=CN=C21,InChIKey=XQQIMTUYVDUWKJ-DJLDLDEBSA-N,7.67,4.94,NA,NA,NA,NA,NA,NA,NA,NA,NA,NA,NA,NA
m-Coumaric acid,HMDB01713,6.495,1,d,16.06,0.9657,-1,OC(=O)\C=C\C1=CC=CC(O)=C1,InChIKey=KKSDGJDHHZEWEP-SNAWJCMRSA-N,9.43,1.59,NaN,0.065142857,NaN,NaN,NaN,NaN,NaN,NaN,NaN,NaN,NaN,NaN
Deoxyinosine,HMDB00071,6.505,1,t,6.76,0.2668,0,OC[C@H]1O[C@H](C[C@@H]1O)N1C=NC2=C1N=CN=C2O,InChIKey=VGONTNSXDCQUGY-RRKCRQDMSA-N,3.53,-4.9,NaN,NA,NaN,NaN,NaN,NaN,NaN,NaN,NaN,NaN,NaN,NaN
Tiglylglycine,HMDB00959,6.505,1,m,NA,0.109,-1,C\C=C(/C)C(=O)NCC(O)=O,InChIKey=WRUSVQOKJIDBLP-HWKANZROSA-N,19.35,1.6,NaN,NaN,NaN,NaN,NaN,NaN,NaN,NaN,NaN,NaN,NaN,NaN
Estriol,HMDB00153,6.515,1,dd,8.39 2.50,0.11,0,[H][C@@]12C[C@@H](O)[C@H](O)[C@@]1(C)CC[C@]1([H])C3=C(CC[C@@]21[H])C=C(O)C=C3,InChIKey=PROQIPRRNZUXQM-ZXXIGWHRSA-N,2.84,5.54,0.006,NaN,NaN,NaN,NaN,0.0023,NaN,NaN,NaN,NaN,NaN,NaN
17-Epiestriol,HMDB00356,6.515,1,dd,8.36 2.31,0.109,0,C[C@]12CCC3C(CCC4=C3C=CC(O)=C4)C1C[C@@H](O)[C@H]2O,InChIKey=PROQIPRRNZUXQM-MAHASAQBSA-N,4.09,-3.5,NA,NA,NA,NA,NA,NA,NA,NA,NA,NA,NA,NA
16a-Hydroxyestrone,HMDB00335,6.515,1,dd,NA,0.0357,0,[H][C@@]12C[C@@H](O)C(=O)[C@@]1(C)CC[C@]1([H])C3=C(CC[C@@]21[H])C=C(O)C=C3,InChIKey=WPOCIZJTELRQMF-QFXBJFAPSA-N,4.48,9.66,NaN,NaN,NaN,NaN,NaN,NaN,NaN,NaN,NaN,NaN,NaN,NaN
16b-Hydroxyestradiol,HMDB00347,6.515,1,dd,8.42 2.42,0.0864,0,[H][C@@]12C[C@H](O)[C@H](O)[C@@]1(C)CC[C@]1([H])C3=C(CC[C@@]21[H])C=C(O)C=C3,InChIKey=PROQIPRRNZUXQM-ZMSHIADSSA-N,11.47,-3.8,NaN,NaN,NaN,NaN,NaN,NaN,NaN,NaN,NaN,NaN,NaN,NaN
Fumaric acid,HMDB00134,6.525,2,s,NA,1,-2,OC(=O)\C=C\C(O)=O,InChIKey=VZCYOOQTPOCHFL-OWOJBTEDSA-N,3.33,-0.78,1.5,0.4125,NaN,1.95,33,NaN,NaN,NaN,NaN,NaN,NaN,NaN
Argininosuccinic acid,HMDB00052,6.525,0,s,NA,0.1229,-1,N[C@@H](CCCNC(=N)N[C@@H](CC(O)=O)C(O)=O)C(O)=O,InChIKey=KDZOASGQNOPSCU-WDSKDSINSA-N,0.83,-9.9,NaN,0.0032,NaN,NaN,NaN,NaN,NaN,NaN,NaN,NaN,NaN,NaN
Cinnamic acid,HMDB00567,6.525,1,d,16.07,1,-1,OC(=O)\C=C/C1=CC=CC=C1,InChIKey=WBYWAXJHAXSJNI-SREVYHEPSA-N,4.2,-2.7,NaN,NaN,NaN,NaN,NaN,NaN,NaN,NaN,NaN,NaN,NaN,NaN
Deoxyadenosine monophosphate,HMDB00905,6.535,2,t,6.52,0.4698,-2,NC1=NC=NC2=C1N=CN2[C@H]1C[C@H](O)[C@@H](COP(O)(O)=O)O1,InChIKey=KHWCHTKSEGGWEX-RRKCRQDMSA-N,0.54,10.77,NA,NA,NA,NA,NA,NA,NA,NA,NA,NA,NA,NA
Deoxyadenosine triphosphate,HMDB01532,6.535,1,t,6.76,0.0633,-3,NC1=NC=NC2=C1N=CN2[C@H]1C[C@H](O)[C@@H](COP(O)(=O)OP(O)(=O)OP(O)(O)=O)O1,InChIKey=SUYVUBYJARFZHO-RRKCRQDMSA-N,9.06,-4.2,NA,NA,NA,NA,NA,NA,NA,NA,NA,NA,NA,NA
trans-Cinnamic acid,HMDB00930,6.535,1,d,16.06,1,-1,OC(=O)\C=C\C1=CC=CC=C1,InChIKey=WBYWAXJHAXSJNI-VOTSOKGWSA-N,1.81,-3.4,NaN,NaN,NaN,NaN,NaN,NaN,NaN,NaN,NaN,NaN,NaN,NaN
17a-Estradiol,HMDB00429,6.545,1,dd,8.42 2.70,0.0679,0,[H][C@@]12CC[C@@H](O)[C@@]1(C)CC[C@]1([H])C3=C(CC[C@@]21[H])C=C(O)C=C3,InChIKey=VOXZDWNPVJITMN-SFFUCWETSA-N,1.22,-6.1,NaN,2.3,NaN,NaN,NaN,NaN,NaN,NaN,NaN,NaN,NaN,NaN
Luteolin,HMDB05800,6.555,1,s,NA,0.057,-1,OC1=CC2=C(C(O)=C1)C(=O)C=C(O2)C1=CC=C(O)C(O)=C1,InChIKey=IQPNAANSBPBGFQ-UHFFFAOYSA-N,1.87,10,NA,NA,NA,NA,NA,NA,NA,NA,NA,NA,NA,NA
Pyridoxal,HMDB01545,6.557,2,d,1.98,0.0438,0,CC1=C(O)C(C=O)=C(CO)C=N1,InChIKey=RADKZDMFGJYCBB-UHFFFAOYSA-N,0.83,-4.9,0.251,NaN,NaN,NaN,NaN,NaN,NaN,NaN,NaN,NaN,NaN,NaN
2-Furoic acid,HMDB00617,6.563,1,dd,3.43 1.78,0.8497,-1,OC(=O)C1=CC=CO1,InChIKey=SMNDYUVBFMFKNZ-UHFFFAOYSA-N,3.58,0.02,NaN,NaN,NaN,NaN,NaN,NaN,NaN,NaN,NaN,NaN,NaN,NaN
17a-Ethynylestradiol,HMDB01926,6.585,5,br. s.,NA,0.3643,0,[H][C@@]12CC[C@@](O)(C#C)[C@@]1(C)CC[C@]1([H])C3=CC=C(O)C=C3CC[C@@]21[H],InChIKey=BFPYWIDHMRZLRN-SLHNCBLASA-N,18.38,9.27,0.00016,NaN,NaN,NaN,NaN,NaN,NaN,NaN,NaN,NaN,NaN,NaN
cis-Aconitic acid,HMDB00072,6.595,1,s,NA,0.4805,-3,OC(=O)C\C(=C\C(O)=O)C(O)=O,InChIKey=GTZCVFVGUGFEME-IWQZZHSRSA-N,4.99,-3,NaN,13,NaN,NaN,20,NaN,NaN,NaN,NaN,NaN,NaN,NaN
3.5-Diiodothyronine,HMDB00582,6.605,2,d,NA,0.0106,0,NC(CC1=CC(I)=C(OC2=CC=C(O)C=C2)C(I)=C1)C(O)=O,InChIKey=ZHSOTLOTTDYIIK-UHFFFAOYSA-N,12.59,-1.1,1.60E-05,1.80E-05,NaN,NaN,NaN,NaN,NaN,NaN,NaN,NaN,NaN,NaN
Indole,HMDB00738,6.605,1,d,2.75,0.1976,0,N1C=CC2=C1C=CC=C2,InChIKey=SIKJAQJRHWYJAI-UHFFFAOYSA-N,19.78,12.39,NaN,NaN,NaN,NaN,NaN,NaN,NaN,NaN,NaN,NaN,NaN,NaN
Hydroxycobalamin,HMDB02308,6.615,0,s,NA,0.0121,2,[Co++].O.OC[C@H]1O[C@@]([H])([C@H](O)[C@]1([H])OP(=O)([O-])O[C@H](C)CNC(=O)CC[C@]1(C)[C@@H](CC(=O)N)[C@@]2([H])[N-]\C1=C(C)/C1=N/C(=C\C3=N\C(=C(C)/C4=N[C@]2(C)[C@@](C)(CC(=O)N)[C@@H]4CCC(=O)N)\[C@@](C)(CC(=O)N)[C@@H]3CCC(=O)N)/C(C)(C)[C@@H]1CCC(=O)N)N1C=NC2=C1C=C(C)C(C)=C2,InChIKey=DQOCFCZRZOAIBN-WZHZPDAFSA-L,2.45,-1.9,NA,NA,NA,NA,NA,NA,NA,NA,NA,NA,NA,NA
6-Hydroxynicotinic acid,HMDB02658,6.615,1,dd,9.19 0.88,0.7149,-1,OC(=O)C1=CN=C(O)C=C1,InChIKey=BLHCMGRVFXRYRN-UHFFFAOYSA-N,16.07,5,NaN,NaN,NaN,NaN,NaN,NaN,NaN,NaN,NaN,NaN,NaN,NaN
4-Aminophenol,HMDB01169,6.625,1,d,NA,0.1056,0,NC1=CC=C(O)C=C1,InChIKey=PLIKAWJENQZMHA-UHFFFAOYSA-N,4.4,-6.3,NaN,NaN,NaN,NaN,NaN,NaN,NaN,NaN,NaN,NaN,NaN,NaN
2-Hydroxyestradiol,HMDB00338,6.635,1,s,NA,0.2194,0,[H][C@@]12CC[C@H](O)[C@@]1(C)CC[C@]1([H])C3=C(CC[C@@]21[H])C=C(O)C(O)=C3,InChIKey=DILDHNKDVHLEQB-XSSYPUMDSA-N,1.86,-6.7,NaN,NaN,NaN,NaN,NaN,NaN,NaN,NaN,NaN,NaN,NaN,NaN
2-Hydroxyestrone,HMDB00343,6.635,1,s,NA,0.276,0,[H][C@@]12CCC(=O)[C@@]1(C)CC[C@]1([H])C3=C(CC[C@@]21[H])C=C(O)C(O)=C3,InChIKey=SWINWPBPEKHUOD-JPVZDGGYSA-N,4,-2.8,NaN,NaN,NaN,NaN,NaN,NaN,NaN,NaN,NaN,NaN,NaN,NaN
Perillic acid,HMDB04586,6.635,1,m,NA,0.0566,-1,CC(=C)C1CCC(=CC1)C(O)=O,InChIKey=CDSMSBUVCWHORP-UHFFFAOYSA-N,1.89,-6.6,NaN,NaN,NaN,NaN,NaN,NaN,NaN,NaN,NaN,NaN,NaN,NaN
Shikimic acid,HMDB03070,6.635,2,m,NA,0.9566,-1,O[C@@H]1CC(=C[C@@H](O)[C@H]1O)C(O)=O,InChIKey=JXOHGGNKMLTUBP-HSUXUTPPSA-N,1.86,-0.032,NaN,NaN,NaN,NaN,NaN,NaN,NaN,NaN,NaN,NaN,NaN,NaN
17a-Ethynylestradiol,HMDB01926,6.645,6,d,8.01,0.2129,0,[H][C@@]12CC[C@@](O)(C#C)[C@@]1(C)CC[C@]1([H])C3=CC=C(O)C=C3CC[C@@]21[H],InChIKey=BFPYWIDHMRZLRN-SLHNCBLASA-N,18.38,9.27,0.00016,NaN,NaN,NaN,NaN,NaN,NaN,NaN,NaN,NaN,NaN,NaN
Liothyronine,HMDB00265,6.645,1,dd,8.86 2.97,0.0829,0,N[C@@H](CC1=CC(I)=C(OC2=CC=C(O)C(I)=C2)C(I)=C1)C(O)=O,InChIKey=AUYYCJSJGJYCDS-LBPRGKRZSA-N,1.86,-2.8,NaN,NaN,NaN,0,NaN,NaN,NaN,NaN,NaN,NaN,NaN,NaN
Benzocaine,HMDB04992,6.655,2,d,NA,0.2048,0,CCOC(=O)C1=CC=C(N)C=C1,InChIKey=BLFLLBZGZJTVJG-UHFFFAOYSA-N,1.87,10,NA,NA,NA,NA,NA,NA,NA,NA,NA,NA,NA,NA
trans-2-Octenoic acid,HMDB01568,6.655,1,dt,15.58 6.98,0.2177,-1,CCCCC\C=C\C(O)=O,InChIKey=CWMPPVPFLSZGCY-VOTSOKGWSA-N,14.58,-1.3,NA,NA,NA,NA,NA,NA,NA,NA,NA,NA,NA,NA
2-Furoylglycine,HMDB00439,6.655,1,dd,3.49 1.73,0.244,-1,OC(=O)CNC(=O)C1=CC=CO1,InChIKey=KSPQDMRTZZYQLM-UHFFFAOYSA-N,18.3,-3.7,NaN,9.95,NaN,NaN,NaN,NaN,NaN,NaN,NaN,NaN,NaN,NaN
2-Octenoic acid,HMDB00392,6.661,1,dt,15.56 6.99,0.2073,-1,CCCCC\C=C/C(O)=O,InChIKey=CWMPPVPFLSZGCY-SREVYHEPSA-N,4.89,-3.2,NA,NA,NA,NA,NA,NA,NA,NA,NA,NA,NA,NA
5-Hydroxytryptophol,HMDB01855,6.665,1,dd,8.61 2.34,0.1014,0,OCCC1=CNC2=CC=C(O)C=C12,InChIKey=KQROHCSYOGBQGJ-UHFFFAOYSA-N,1.44,-2.9,9.00E-04,NaN,NaN,NaN,0.004,NaN,NaN,NaN,NaN,NaN,NaN,NaN
Canthaxanthin,HMDB03154,6.665,4,m,NA,0.0724,0,C\C(\C=C\C=C(/C)\C=C\C1=C(C)C(=O)CCC1(C)C)=C/C=C/C=C(\C)/C=C/C=C(\C)/C=C/C1=C(C)C(=O)CCC1(C)C,InChIKey=FDSDTBUPSURDBL-DKLMTRRASA-N,14.58,-3,NaN,NaN,NaN,NaN,NaN,NaN,NaN,NaN,NaN,NaN,NaN,NaN
Traumatic acid,HMDB00933,6.665,6,m,NA,0.1041,-2,OC(=O)CCCCCCCC\C=C\C(O)=O,InChIKey=MAZWDMBCPDUFDJ-VQHVLOKHSA-N,7.54,-1.3,NaN,NaN,NaN,NaN,NaN,NaN,NaN,NaN,NaN,NaN,NaN,NaN
Glutaconic acid,HMDB00620,6.666,1,dt,15.58 7.32,0.4462,-2,OC(=O)C\C=C\C(O)=O,InChIKey=XVOUMQNXTGKGMA-OWOJBTEDSA-N,3.71,-2.8,NaN,NaN,NaN,NaN,NaN,NaN,NaN,NaN,NaN,NaN,NaN,NaN
Acetaminophen,HMDB01859,6.675,1,d,8.52,0.4069,0,CC(=O)NC1=CC=C(O)C=C1,InChIKey=RZVAJINKPMORJF-UHFFFAOYSA-N,14.23,4.95,NaN,8.2,NaN,NaN,11,NaN,NaN,NaN,NaN,NaN,NaN,NaN
Ranitidine,HMDB01930,6.675,1,d,3.07,0.0687,1,CN\C(NCCSCC1=CC=C(CN(C)C)O1)=C/[N+]([O-])=O,InChIKey=VMXUWOKSQNHOCA-UKTHLTGXSA-N,1.87,10,NaN,NaN,NaN,NaN,NaN,NaN,NaN,NaN,NaN,NaN,NaN,NaN
Kynurenic acid,HMDB00715,6.683,1,s,NA,1,-1,OC(=O)C1=CC(=O)C2=CC=CC=C2N1,InChIKey=HCZHHEIFKROPDY-UHFFFAOYSA-N,1.48,9.57,0.0265,1.34,NaN,NaN,NaN,NaN,NaN,NaN,NaN,NaN,NaN,NaN
3-Furoic acid,HMDB00444,6.685,1,d,1.04,0.5246,-1,OC(=O)C1=COC=C1,InChIKey=IHCCAYCGZOLTEU-UHFFFAOYSA-N,18.3,-3.6,NA,NA,NA,NA,NA,NA,NA,NA,NA,NA,NA,NA
Pteroyltriglutamic acid,HMDB01902,6.685,1,d,8.69,0.0945,-4,NC1=NC(=O)C2=NC(CNC3=CC=C(C=C3)C(=O)NC(CCC(=O)NC(CCC(=O)NC(CCC(O)=O)C(O)=O)C(O)=O)C(O)=O)=CN=C2N1,InChIKey=WOLQREOUPKZMEX-UHFFFAOYSA-N,13.42,-0.26,NA,NA,NA,NA,NA,NA,NA,NA,NA,NA,NA,NA
4-Aminophenol,HMDB01169,6.695,1,d,8.62,0.0911,0,NC1=CC=C(O)C=C1,InChIKey=PLIKAWJENQZMHA-UHFFFAOYSA-N,4.4,-6.3,NaN,NaN,NaN,NaN,NaN,NaN,NaN,NaN,NaN,NaN,NaN,NaN
4-Methylcatechol,HMDB00873,6.695,1,ddd,8.04 2.06 0.71,0.1141,0,CC1=CC(O)=C(O)C=C1,InChIKey=ZBCATMYQYDCTIZ-UHFFFAOYSA-N,19.96,-3.1,NaN,NaN,NaN,NaN,NaN,NaN,NaN,NaN,NaN,NaN,NaN,NaN
Hydroxykynurenine,HMDB00732,6.695,1,t,NA,0.0543,0,NC(CC(=O)C1=C(N)C(O)=CC=C1)C(O)=O,InChIKey=VCKPUUFAIGNJHC-UHFFFAOYSA-N,0.83,-3.3,NaN,NaN,NaN,NaN,NaN,NaN,NaN,NaN,NaN,NaN,NaN,NaN
3.5-Diiodothyronine,HMDB00582,6.705,2,d,NA,0.0111,0,NC(CC1=CC(I)=C(OC2=CC=C(O)C=C2)C(I)=C1)C(O)=O,InChIKey=ZHSOTLOTTDYIIK-UHFFFAOYSA-N,12.59,-1.1,1.60E-05,1.80E-05,NaN,NaN,NaN,NaN,NaN,NaN,NaN,NaN,NaN,NaN
Phloretin,HMDB03306,6.705,2,d,8.42,0.3531,0,OC1=CC=C(CCC(=O)C2=C(O)C=C(O)C=C2O)C=C1,InChIKey=VGEREEWJJVICBM-UHFFFAOYSA-N,14.58,-3,NaN,NaN,NaN,NaN,NaN,NaN,NaN,NaN,NaN,NaN,NaN,NaN
Vanillactic acid,HMDB00913,6.705,1,dd,NA,0.3144,-1,COC1=CC(CC(O)C(O)=O)=CC=C1O,InChIKey=SVYIZYRTOYHQRE-UHFFFAOYSA-N,4.95,4.97,NaN,NaN,NaN,NaN,NaN,NaN,NaN,NaN,NaN,NaN,NaN,NaN
3.4-Dihydroxybenzeneacetic acid,HMDB01336,6.715,1,dd,8.09 2.03,0.1902,-1,OC(=O)CC1=CC=C(O)C(O)=C1,InChIKey=CFFZDZCDUFSOFZ-UHFFFAOYSA-N,4.92,2.94,0.019,2.41,NaN,NaN,0.0025,NaN,NaN,NaN,NaN,NaN,NaN,NaN
16-Dehydroprogesterone,HMDB00995,6.725,1,dd,3.02 1.74,0.1454,0,[H][C@@]12CC=C(C(C)=O)[C@@]1(C)CC[C@@]1([H])[C@@]2([H])CCC2=CC(=O)CC[C@]12C,InChIKey=VRRHHTISESGZFN-RKFFNLMFSA-N,2.52,-0.94,NA,NA,NA,NA,NA,NA,NA,NA,NA,NA,NA,NA
Aniline,HMDB03012,6.725,2,d,8.05,1,0,NC1=CC=CC=C1,InChIKey=PAYRUJLWNCNPSJ-UHFFFAOYSA-N,3.6,-0.18,NaN,NaN,NaN,NaN,NaN,NaN,NaN,NaN,NaN,NaN,NaN,NaN
Catechin,HMDB02780,6.725,1,dd,NA,0.1334,0,O[C@H]1CC2=C(O)C=C(O)C=C2O[C@@H]1C1=CC(O)=C(O)C=C1,InChIKey=PFTAWBLQPZVEMU-DZGCQCFKSA-N,0.83,4.95,NaN,NaN,NaN,NaN,NaN,NaN,NaN,NaN,NaN,NaN,NaN,NaN
Xanthurenic acid,HMDB00881,6.725,20,s,NA,1,-1,OC(=O)C1=NC2=C(O)C=CC=C2C(O)=C1,InChIKey=FBZONXHGGPHHIY-UHFFFAOYSA-N,8.16,-1.6,NaN,1.28,NaN,NaN,NaN,NaN,NaN,NaN,NaN,NaN,NaN,NaN
L-Dopa,HMDB00181,6.735,2,dd,8.10 1.83,0.5056,0,N[C@@H](CC1=CC(O)=C(O)C=C1)C(O)=O,InChIKey=WTDRDQBEARUVNC-LURJTMIESA-N,0.76,-3.6,0.00723,0.0136,NaN,NaN,NaN,NaN,NaN,NaN,NaN,NaN,NaN,NaN
Hydroxycobalamin,HMDB02308,6.735,0,s,NA,0.017,2,[Co++].O.OC[C@H]1O[C@@]([H])([C@H](O)[C@]1([H])OP(=O)([O-])O[C@H](C)CNC(=O)CC[C@]1(C)[C@@H](CC(=O)N)[C@@]2([H])[N-]\C1=C(C)/C1=N/C(=C\C3=N\C(=C(C)/C4=N[C@]2(C)[C@@](C)(CC(=O)N)[C@@H]4CCC(=O)N)\[C@@](C)(CC(=O)N)[C@@H]3CCC(=O)N)/C(C)(C)[C@@H]1CCC(=O)N)N1C=NC2=C1C=C(C)C(C)=C2,InChIKey=DQOCFCZRZOAIBN-WZHZPDAFSA-L,2.45,-1.9,NA,NA,NA,NA,NA,NA,NA,NA,NA,NA,NA,NA
2-Octenedioic acid,HMDB00341,6.735,1,td,15.50 7.06 6.91,0.3543,-2,OC(=O)CCCC\C=C\C(O)=O,InChIKey=BNTPVRGYUHJFHN-HWKANZROSA-N,4.65,-1.3,NaN,NaN,NaN,NaN,NaN,NaN,NaN,NaN,NaN,NaN,NaN,NaN
3.4-Dihydroxyhydrocinnamic acid,HMDB00423,6.735,1,dd,8.10 2.10,0.4432,-1,OC(=O)CCC1=CC=C(O)C(O)=C1,InChIKey=DZAUWHJDUNRCTF-UHFFFAOYSA-N,8.88,5.16,NaN,0.27,NaN,NaN,NaN,NaN,NaN,NaN,NaN,NaN,NaN,NaN
DL-Dopa,HMDB00609,6.735,1,dd,8.09 2.09,0.4334,0,NC(CC1=CC=C(O)C(O)=C1)C(O)=O,InChIKey=WTDRDQBEARUVNC-UHFFFAOYSA-N,4.26,10.29,NaN,NaN,NaN,NaN,NaN,NaN,NaN,NaN,NaN,NaN,NaN,NaN
Vanillactic acid,HMDB00913,6.735,1,d,NA,0.3144,-1,COC1=CC(CC(O)C(O)=O)=CC=C1O,InChIKey=SVYIZYRTOYHQRE-UHFFFAOYSA-N,4.95,4.97,NaN,NaN,NaN,NaN,NaN,NaN,NaN,NaN,NaN,NaN,NaN,NaN
Verapamil,HMDB01850,6.735,1,dd,NA,0.0862,1,COC1=C(OC)C=C(CCN(C)CCCC(C#N)(C(C)C)C2=CC(OC)=C(OC)C=C2)C=C1,InChIKey=SGTNSNPWRIOYBX-UHFFFAOYSA-N,12.45,-0.16,NaN,NaN,NaN,NaN,NaN,NaN,NaN,NaN,NaN,NaN,NaN,NaN
N-Acetylserotonin,HMDB01238,6.739,1,dd,8.65 2.29,0.0137,0,CC(=O)NCCC1=CNC2=C1C=C(O)C=C2,InChIKey=MVAWJSIDNICKHF-UHFFFAOYSA-N,2.7,-1.4,NaN,NaN,NaN,NaN,NaN,NaN,NaN,NaN,NaN,NaN,NaN,NaN
m-Cresol,HMDB02048,6.745,1,m,NA,0.0684,0,CC1=CC(O)=CC=C1,InChIKey=RLSSMJSEOOYNOY-UHFFFAOYSA-N,8.76,-1.6,NaN,0.13,NaN,NaN,NaN,NaN,NaN,NaN,NaN,NaN,NaN,NaN
5-Methoxytryptophol,HMDB01896,6.755,1,dd,8.72 2.39,0.063,0,COC1=CC=C2NC=C(CCO)C2=C1,InChIKey=QLWKTGDEPLRFAT-UHFFFAOYSA-N,16.44,-0.18,0.00015,NaN,NaN,NaN,NaN,NaN,NaN,NaN,NaN,NaN,NaN,NaN
L-Kynurenine,HMDB00684,6.765,0,ddd,8.12 7.10 1.02,0.0517,0,N[C@@H](CC(=O)C1=CC=CC=C1N)C(O)=O,InChIKey=YGPSJZOEDVAXAB-QMMMGPOBSA-N,13.62,0.28,1.5,1.63,NaN,NaN,0.0019,NaN,NaN,NaN,NaN,NaN,NaN,NaN
Dopamine,HMDB00073,6.765,1,dd,8.07 2.11,0.3418,1,NCCC1=CC=C(O)C(O)=C1,InChIKey=VYFYYTLLBUKUHU-UHFFFAOYSA-N,2.61,2.09,22.5,0.142333333,NaN,NaN,0.00325,NaN,NaN,NaN,NaN,NaN,NaN,NaN
2-Methoxyestradiol,HMDB00405,6.775,1,s,NA,0.1882,0,[H][C@@]12CC[C@H](O)[C@@]1(C)CC[C@]1([H])C3=C(CC[C@@]21[H])C=C(O)C(OC)=C3,InChIKey=CQOQDQWUFQDJMK-SSTWWWIQSA-N,4.02,-1.4,0.01,NaN,NaN,NaN,NaN,NaN,NaN,NaN,NaN,NaN,NaN,NaN
Catechin,HMDB02780,6.775,1,d,NA,0.2395,0,O[C@H]1CC2=C(O)C=C(O)C=C2O[C@@H]1C1=CC(O)=C(O)C=C1,InChIKey=PFTAWBLQPZVEMU-DZGCQCFKSA-N,0.83,4.95,NaN,NaN,NaN,NaN,NaN,NaN,NaN,NaN,NaN,NaN,NaN,NaN
Cinnamaldehyde,HMDB03441,6.775,1,dd,NA,0.0496,0,O=C\C=C\C1=CC=CC=C1,InChIKey=KJPRLNWUNMBNBZ-QPJJXVBHSA-N,14.58,-3,NaN,NaN,NaN,NaN,NaN,NaN,NaN,NaN,NaN,NaN,NaN,NaN
Homovanillic acid,HMDB00118,6.785,1,dd,8.05 2.01,0.081,-1,COC1=CC(CC(O)=O)=CC=C1O,InChIKey=QRMZSPFSDQBLIX-UHFFFAOYSA-N,1.86,-4.8,0.082,NA,NaN,NaN,0.16,NaN,NaN,NaN,NaN,NaN,NaN,NaN
L-Thyronine,HMDB00667,6.785,2,d,NA,0.2993,0,N[C@@H](CC1=CC=C(OC2=CC=C(O)C=C2)C=C1)C(O)=O,InChIKey=KKCIOUWDFWQUBT-AWEZNQCLSA-N,3.41,9.57,0.29,0.0024,NaN,NaN,NaN,NaN,NaN,NaN,NaN,NaN,NaN,NaN
2-Methoxyestrone,HMDB00010,6.785,1,s,NA,0.1262,0,[H][C@@]12CCC(=O)[C@@]1(C)CC[C@]1([H])C3=C(CC[C@@]21[H])C=C(O)C(OC)=C3,InChIKey=WHEUWNKSCXYKBU-QPWUGHHJSA-N,1.87,10,NaN,0.005,NaN,NaN,NaN,NaN,NaN,NaN,NaN,NaN,NaN,NaN
m-Cresol,HMDB02048,6.785,1,br. s.,NA,0.111,0,CC1=CC(O)=CC=C1,InChIKey=RLSSMJSEOOYNOY-UHFFFAOYSA-N,8.76,-1.6,NaN,0.13,NaN,NaN,NaN,NaN,NaN,NaN,NaN,NaN,NaN,NaN
Aminopterin,HMDB01833,6.788,2,d,8.65,0.7468,-2,NC1=NC2=C(N=C(CNC3=CC=C(C=C3)C(=O)NC(CCC(O)=O)C(O)=O)C=N2)C(N)=N1,InChIKey=TVZGACDUOSZQKY-UHFFFAOYSA-N,9.51,-3.5,NA,NA,NA,NA,NA,NA,NA,NA,NA,NA,NA,NA
3-Aminosalicylic acid,HMDB01972,6.795,15,t,7.78,0.3954,-1,NC1=CC=CC(C(O)=O)=C1O,InChIKey=IQGMRVWUTCYCST-UHFFFAOYSA-N,18.2,12.44,NaN,NaN,NaN,NaN,NaN,NaN,NaN,NaN,NaN,NaN,NaN,NaN
4-Methylcatechol,HMDB00873,6.795,1,d,1.59,0.2078,0,CC1=CC(O)=C(O)C=C1,InChIKey=ZBCATMYQYDCTIZ-UHFFFAOYSA-N,19.96,-3.1,NaN,NaN,NaN,NaN,NaN,NaN,NaN,NaN,NaN,NaN,NaN,NaN
Aniline,HMDB03012,6.795,1,t,7.32,0.5409,0,NC1=CC=CC=C1,InChIKey=PAYRUJLWNCNPSJ-UHFFFAOYSA-N,3.6,-0.18,NaN,NaN,NaN,NaN,NaN,NaN,NaN,NaN,NaN,NaN,NaN,NaN
3-Methoxytyrosine,HMDB01434,6.805,13,dd,8.10 1.97,0.0961,0,COC1=CC(CC(N)C(O)=O)=CC=C1O,InChIKey=PFDUUKDQEHURQC-UHFFFAOYSA-N,1.83,-3.6,0.089,0.06,NaN,NaN,NaN,NaN,NaN,NaN,NaN,NaN,NaN,NaN
3-Hydroxyphenylacetic acid,HMDB00440,6.805,1,m,NA,0.4144,-1,OC(=O)CC1=CC=CC(O)=C1,InChIKey=FVMDYYGIDFPZAX-UHFFFAOYSA-N,13.62,8.23,NaN,11.85,NaN,NaN,NaN,NaN,NaN,NaN,NaN,NaN,NaN,NaN
Metoprolol,HMDB01932,6.805,2,d,8.65,0.2146,1,COCCC1=CC=C(OCC(O)CNC(C)C)C=C1,InChIKey=IUBSYMUCCVWXPE-UHFFFAOYSA-N,0.83,7.85,NaN,NaN,NaN,NaN,NaN,NaN,NaN,NaN,NaN,NaN,NaN,NaN
p-Cresol sulfate,HMDB11635,6.805,3,d,8.24,0.449,-1,CC1=CC=C(OS(O)(=O)=O)C=C1,InChIKey=WGNAKZGUSRVWRH-UHFFFAOYSA-N,1.86,-3,NaN,NaN,NaN,14.22,NaN,NaN,NaN,NaN,NaN,NaN,NaN,NaN
Quinone,HMDB03364,6.805,1,s,NA,1,0,O=C1C=CC(=O)C=C1,InChIKey=AZQWKYJCGOJGHM-UHFFFAOYSA-N,14.58,-3,NaN,NaN,NaN,NaN,NaN,NaN,NaN,NaN,NaN,NaN,NaN,NaN
L-Thyronine,HMDB00667,6.815,2,d,8.58,0.2993,0,N[C@@H](CC1=CC=C(OC2=CC=C(O)C=C2)C=C1)C(O)=O,InChIKey=KKCIOUWDFWQUBT-AWEZNQCLSA-N,3.41,9.57,0.29,0.0024,NaN,NaN,NaN,NaN,NaN,NaN,NaN,NaN,NaN,NaN
3.4.5-Trimethoxycinnamic acid,HMDB02511,6.815,2,s,NA,0.279,-1,COC1=CC(\C=C\C(O)=O)=CC(OC)=C1OC,InChIKey=YTFVRYKNXDADBI-SNAWJCMRSA-N,15.1,-3.9,NaN,NaN,NaN,NaN,NaN,NaN,NaN,NaN,NaN,NaN,NaN,NaN