Metabolite,HMDB Name,Shift (ppm),Hs,Type,J (Hz),Height,Physiological Charge,SMILES,InChlKey,pKa (Strongest Acidic),pKa (Strongest Basic),Blood,Urine,Feces,Saliva,Cerebrospinal Fluid (CSF),Amniotic Fluid,Aqueous Humour,Ascites Fluid,Breast Milk,Lymph,Sweat,Tears
3b-Hydroxy-5-cholenoic acid,HMDB00308,0.945,8,m,NA,1,-1,[H][C@@]12CC[C@H]([C@H](C)CCC(O)=O)[C@@]1(C)CC[C@@]1([H])[C@@]2([H])CC=C2C[C@@H](O)CC[C@]12C,InChIKey=HIAJCGFYHIANNA-QIZZZRFXSA-N,10.29,-3,NaN,NaN,NaN,NaN,NaN,NaN,NaN,NaN,NaN,NaN,NaN,NaN
Hydroxyisocaproic acid,HMDB00746,0.945,23,d,2.47,1,-1,CC(C)C[C@H](O)C(O)=O,InChIKey=LVRFTAZAXQPQHI-YFKPBYRVSA-N,18.3,4.69,NaN,NaN,NaN,6.17,NaN,NaN,NaN,NaN,NaN,NaN,NaN,NaN
Leucinic acid,HMDB00665,0.945,8,dd,6.66 1.30,1,-1,CC(C)CC(O)C(O)=O,InChIKey=LVRFTAZAXQPQHI-UHFFFAOYSA-N,15.54,0.22,NaN,NaN,NaN,NaN,NaN,NaN,NaN,NaN,NaN,NaN,NaN,NaN
Iso-Valeraldehyde,HMDB06478,0.955,6,d,6.71,1,0,CC(C)CC=O,InChIKey=YGHRJJRRZDOVPD-UHFFFAOYSA-N,1.89,-6.6,0.11,NaN,NaN,NaN,14.9,NaN,NaN,NaN,NaN,NaN,NaN,NaN
Azythromycin,HMDB01916,0.955,6,dd,7.15 4.24,0.1066,2,CC[C@@H]1OC(=O)[C@H](C)[C@@H](O[C@@H]2C[C@](C)(OC)[C@H](O)[C@@H](C)O2)[C@@H](C)[C@H](O[C@H]2O[C@@H](C)C[C@H]([C@@H]2O)N(C)C)[C@@](C)(O)C[C@H](C)CN(C)[C@@H](C)[C@@H](O)[C@]1(C)O,InChIKey=MQTOSJVFKKJCRP-HHZDEWPHSA-N,3.84,1.99,NA,NA,NA,NA,NA,NA,NA,NA,NA,NA,NA,NA
16-a-Hydroxypregnenolone,HMDB00315,0.955,3,s,NA,0.5007,0,[H][C@@]12C[C@@H](O)[C@H](C(C)=O)[C@@]1(C)CC[C@@]1([H])[C@@]2([H])CC=C2C[C@@H](O)CC[C@]12C,InChIKey=ZAKJZPQDUPCXSD-YRWKUUEZSA-N,18.3,-0.16,NaN,NaN,NaN,NaN,NaN,NaN,NaN,NaN,NaN,NaN,NaN,NaN
17a-Hydroxypregnenolone,HMDB00363,0.955,3,s,NA,0.611,0,[H][C@@]12CC[C@](O)(C(C)=O)[C@@]1(C)CC[C@@]1([H])[C@@]2([H])CC=C2C[C@@H](O)CC[C@]12C,InChIKey=JERGUCIJOXJXHF-TVWVXWENSA-N,4.56,-0.76,NaN,NaN,NaN,NaN,NaN,NaN,NaN,NaN,NaN,NaN,NaN,NaN
2-Methylbutyrylglycine,HMDB00339,0.955,18,t,7.43,0.9411,-1,CCC(C)C(=O)NCC(O)=O,InChIKey=HOACIBQKYRHBOW-UHFFFAOYSA-N,1.86,-0.58,NaN,2,NaN,NaN,NaN,NaN,NaN,NaN,NaN,NaN,NaN,NaN
3b-Hydroxy-5-cholenoic acid,HMDB00308,0.955,5,s,NA,1,-1,[H][C@@]12CC[C@H]([C@H](C)CCC(O)=O)[C@@]1(C)CC[C@@]1([H])[C@@]2([H])CC=C2C[C@@H](O)CC[C@]12C,InChIKey=HIAJCGFYHIANNA-QIZZZRFXSA-N,10.29,-3,NaN,NaN,NaN,NaN,NaN,NaN,NaN,NaN,NaN,NaN,NaN,NaN
3-Methyladipic acid,HMDB00555,0.955,1,d,6.73,1,-2,C[C@@H](CCC(O)=O)CC(O)=O,InChIKey=SYEOWUNSTUDKGM-YFKPBYRVSA-N,1.19,-3.8,NaN,6.05,NaN,NaN,NaN,NaN,NaN,NaN,NaN,NaN,NaN,NaN
Dihydroandrosterone,HMDB00554,0.955,2,m,NA,0.0667,0,[H][C@@]12CC[C@H](O)[C@@]1(C)CC[C@@]1([H])[C@@]2([H])CC[C@@]2([H])C[C@H](O)CC[C@]12C,InChIKey=CBMYJHIOYJEBSB-KHOSGYARSA-N,3.62,9.99,NaN,NaN,NaN,NaN,NaN,NaN,NaN,NaN,NaN,NaN,NaN,NaN
Gamma-Caprolactone,HMDB03843,0.955,3,t,7.46,1,0,CCC1CCC(=O)O1,InChIKey=JBFHTYHTHYHCDJ-UHFFFAOYSA-N,14.58,-3,NaN,NaN,NaN,NaN,NaN,NaN,NaN,NaN,NaN,NaN,NaN,NaN
Nutriacholic acid,HMDB00467,0.955,3,d,6.41,0.474,-1,[H][C@@]12CCC([C@@H](C)CCC(O)=O)[C@@]1(C)CC[C@@]1([H])[C@@]2([H])C(=O)C[C@]2([H])C[C@H](O)CC[C@]12C,InChIKey=DXOCDBGWDZAYRQ-QPVZPPSOSA-N,3.78,-0.78,NaN,NaN,NaN,NaN,NaN,NaN,NaN,NaN,NaN,NaN,NaN,NaN
L-Leucine,HMDB00687,0.963,57,t,5.897,NA,0,CC(C)C[C@H](N)C(O)=O,InChIKey=ROHFNLRQFUQHCH-YFKPBYRVSA-N,4.22,-0.95,157.5666667,3.917,NaN,53.5,13.05,NaN,NaN,NaN,NaN,NaN,NaN,NaN
Deoxycholic acid,HMDB00626,0.965,4,m,NA,0.3582,-1,[H][C@@]12CC[C@H]([C@H](C)CCC(O)=O)[C@@]1(C)[C@@H](O)C[C@@]1([H])[C@@]2([H])CC[C@]2([H])C[C@H](O)CC[C@]12C,InChIKey=KXGVEGMKQFWNSR-LLQZFEROSA-N,4.73,-2,0.33,NaN,NaN,NaN,NaN,NaN,NaN,NaN,NaN,NaN,NaN,NaN
7-Dehydrocholesterol,HMDB00032,0.965,4,m,NA,0.676,0,[H][C@@]12CC[C@H]([C@H](C)CCCC(C)C)[C@@]1(C)CC[C@@]1([H])C2=CC=C2C[C@@H](O)CC[C@]12C,InChIKey=UCTLRSWJYQTBFZ-DDPQNLDTSA-N,11.25,4.99,5,0.029,NaN,NaN,0,NaN,NaN,NaN,NaN,NaN,NaN,NaN
2-Hydroxy-3-methylbutyric acid,HMDB00407,0.965,19,d,6.96,0.3605,-1,CC(C)C(O)C(O)=O,InChIKey=NGEWQZIDQIYUNV-UHFFFAOYSA-N,4.6,-7,6.1,NaN,NaN,3.13,7.4,NaN,NaN,NaN,NaN,NaN,NaN,NaN
16-Dehydroprogesterone,HMDB00995,0.965,1,s,NA,0.7972,0,[H][C@@]12CC=C(C(C)=O)[C@@]1(C)CC[C@@]1([H])[C@@]2([H])CCC2=CC(=O)CC[C@]12C,InChIKey=VRRHHTISESGZFN-RKFFNLMFSA-N,2.52,-0.94,NA,NA,NA,NA,NA,NA,NA,NA,NA,NA,NA,NA
2-Hydroxy-2-methylbutyric acid,HMDB01987,0.965,1,t,7.44,0.3429,-1,CCC(C)(O)C(O)=O,InChIKey=MBIQENSCDNJOIY-UHFFFAOYSA-N,6.92,-2.2,NaN,NaN,NaN,NaN,NaN,NaN,NaN,NaN,NaN,NaN,NaN,NaN
Glycyl-L-leucine,HMDB00759,0.965,1,t,6.39,0.2508,0,CC(C)C[C@H](NC(=O)CN)C(O)=O,InChIKey=DKEXFJVMVGETOO-LURJTMIESA-N,-0.98,11.18,NaN,NaN,NaN,NaN,NaN,NaN,NaN,NaN,NaN,NaN,NaN,NaN
Hyodeoxycholic acid,HMDB00733,0.965,3,d,6.55,0.4802,-1,[H][C@@]12CC[C@H]([C@H](C)CCC(O)=O)[C@@]1(C)CC[C@@]1([H])[C@@]2([H])C[C@H](O)C2C[C@H](O)CC[C@]12C,InChIKey=DGABKXLVXPYZII-CDONHWFASA-N,5.01,-3.2,NaN,NaN,NaN,NaN,NaN,NaN,NaN,NaN,NaN,NaN,NaN,NaN
Pseudoephedrine,HMDB01943,0.965,16,d,6.63,0.3648,1,CN[C@@H](C)[C@@H](O)C1=CC=CC=C1,InChIKey=KWGRBVOPPLSCSI-WCBMZHEXSA-N,1.79,-0.1,NaN,NaN,NaN,NaN,NaN,NaN,NaN,NaN,NaN,NaN,NaN,NaN
Taurocholic acid,HMDB00036,0.975,1,m,NA,0.0559,-1,[H][C@@]12C[C@H](O)CCC1(C)C1C[C@H](O)C3(C)C(CCC3C1[C@H](O)C2)C(C)CCC(=O)NCCS(O)(=O)=O,InChIKey=WBWWGRHZICKQGZ-BKXUXKPJSA-N,19.03,-2.8,0.38,NaN,NaN,NaN,NaN,NaN,NaN,NaN,NaN,NaN,NaN,NaN
7-Dehydrocholesterol,HMDB00032,0.975,2,s,NA,0.676,0,[H][C@@]12CC[C@H]([C@H](C)CCCC(C)C)[C@@]1(C)CC[C@@]1([H])C2=CC=C2C[C@@H](O)CC[C@]12C,InChIKey=UCTLRSWJYQTBFZ-DDPQNLDTSA-N,11.25,4.99,5,0.029,NaN,NaN,0,NaN,NaN,NaN,NaN,NaN,NaN,NaN
Campesterol,HMDB02869,0.975,8,m,NA,0.1363,0,[H][C@@]12CC[C@H]([C@H](C)CC[C@H](C)C(C)C)[C@@]1(C)CC[C@@]1([H])[C@@]2([H])CC=C2C[C@@H](O)CC[C@]12C,InChIKey=SGNBVLSWZMBQTH-ZRUUVFCLSA-N,1.87,8,8.346666667,NaN,NaN,NaN,NaN,NaN,NaN,NaN,NaN,NaN,NaN,NaN
Danazol,HMDB02835,0.975,3,s,NA,0.838,0,[H][C@@]12CC[C@@](O)(C#C)[C@@]1(C)CC[C@@]1([H])[C@@]2([H])CCC2=CC3=C(C[C@]12C)C=NO3,InChIKey=POZRVZJJTULAOH-LHZXLZLDSA-N,2.89,-3.5,NA,NA,NA,NA,NA,NA,NA,NA,NA,NA,NA,NA
Medroxyprogesterone,HMDB01939,0.975,1,m,NA,0.0145,0,[H][C@@]12CC[C@](O)(C(C)=O)[C@@]1(C)CC[C@@]1([H])[C@@]2([H])C[C@H](C)C2=CC(=O)CC[C@]12C,InChIKey=FRQMUZJSZHZSGN-HBNHAYAOSA-N,4.94,1.15,NA,NA,NA,NA,NA,NA,NA,NA,NA,NA,NA,NA
16-a-Hydroxypregnenolone,HMDB00315,0.975,1,m,NA,0.0326,0,[H][C@@]12C[C@@H](O)[C@H](C(C)=O)[C@@]1(C)CC[C@@]1([H])[C@@]2([H])CC=C2C[C@@H](O)CC[C@]12C,InChIKey=ZAKJZPQDUPCXSD-YRWKUUEZSA-N,18.3,-0.16,NaN,NaN,NaN,NaN,NaN,NaN,NaN,NaN,NaN,NaN,NaN,NaN
17a-Hydroxypregnenolone,HMDB00363,0.975,1,td,NA,0.0434,0,[H][C@@]12CC[C@](O)(C(C)=O)[C@@]1(C)CC[C@@]1([H])[C@@]2([H])CC=C2C[C@@H](O)CC[C@]12C,InChIKey=JERGUCIJOXJXHF-TVWVXWENSA-N,4.56,-0.76,NaN,NaN,NaN,NaN,NaN,NaN,NaN,NaN,NaN,NaN,NaN,NaN
5beta-Coprostanol,HMDB00577,0.975,12,m,NA,0.2563,0,[H][C@@]1(CC[C@@]2([H])[C@]3([H])CC[C@]4([H])C[C@@H](O)CC[C@]4(C)[C@@]3([H])CC[C@]12C)[C@H](C)CCCC(C)C,InChIKey=QYIXCDOBOSTCEI-NWKZBHTNSA-N,4.42,-7.4,NaN,NaN,NaN,NaN,NaN,NaN,NaN,NaN,NaN,NaN,NaN,NaN
Deoxycholic acid glycine conjugate,HMDB00631,0.975,3,d,6.22,0.5144,-1,[H][C@]12CCC3C4CC[C@H]([C@H](C)CCC(=O)NCC(O)=O)[C@@]4(C)[C@@H](O)CC3[C@@]1(C)CC[C@@H](O)C2,InChIKey=WVULKSPCQVQLCU-ZMBDPXIHSA-N,1.86,-6.7,NaN,NaN,NaN,NaN,NaN,NaN,NaN,NaN,NaN,NaN,NaN,NaN
Glycyrrhetinic acid,HMDB11628,0.975,2,m,NA,0.0938,-1,CC1(C)[C@@H](O)CC[C@@]2(C)C1CC[C@]1(C)C2C(=O)C=C2C3C[C@](C)(CC[C@]3(C)CC[C@@]12C)C(O)=O,InChIKey=MPDGHEJMBKOTSU-WFJWTYAKSA-N,1.86,-3,NaN,NaN,NaN,NaN,NaN,NaN,NaN,NaN,NaN,NaN,NaN,NaN
Isovalerylcarnitine,HMDB00688,0.985,6,dd,6.68 1.29,0.1885,0,CC(C)CC(=O)OC(CC([O-])=O)C[N+](C)(C)C,InChIKey=IGQBPDJNUXPEMT-UHFFFAOYSA-N,11.6,9.4,0.138,NaN,NaN,0.073,NaN,NaN,NaN,NaN,NaN,NaN,NaN,NaN
Cholesterol,HMDB00067,0.985,4,m,NA,0.1018,0,[H][C@@]12CC[C@H]([C@H](C)CCCC(C)C)[C@@]1(C)CC[C@@]1([H])[C@@]2([H])CC=C2CC(O)CC[C@]12C,InChIKey=HVYWMOMLDIMFJA-FNOPAARDSA-N,3.17,-0.54,3567.92,NaN,NaN,NA,6.31,NaN,NaN,NaN,NaN,NaN,NaN,NaN
Deoxycholic acid glycine conjugate,HMDB00631,0.985,4,m,NA,0.5144,-1,[H][C@]12CCC3C4CC[C@H]([C@H](C)CCC(=O)NCC(O)=O)[C@@]4(C)[C@@H](O)CC3[C@@]1(C)CC[C@@H](O)C2,InChIKey=WVULKSPCQVQLCU-ZMBDPXIHSA-N,1.86,-6.7,NaN,NaN,NaN,NaN,NaN,NaN,NaN,NaN,NaN,NaN,NaN,NaN
L-Valine,HMDB00883,0.991,3,d,7.01,1,0,CC(C)[C@H](N)C(O)=O,InChIKey=KZSNJWFQEVHDMF-BYPYZUCNSA-N,1.4,9.51,237.2,NA,NaN,NA,18,NaN,NaN,NaN,NaN,NaN,NaN,NaN
Aldosterone,HMDB00037,0.995,1,d,NA,0.0335,0,C[C@]12CCC(=O)C=C1CCC1C3CC[C@H](C(=O)CO)[C@]3(C[C@H](O)C21)C=O,InChIKey=PQSUYGKTWSAVDQ-SRPWZAMTSA-N,4.03,-3,6.80E-05,0.01,NaN,NA,NaN,NaN,NaN,NaN,NaN,NaN,NaN,NaN
Etiocholanolone,HMDB00490,0.995,3,s,NA,0.9483,0,[H][C@@]12CCC(=O)[C@@]1(C)CC[C@@]1([H])[C@@]2([H])CC[C@]2([H])C[C@H](O)CC[C@]12C,InChIKey=QGXBDMJGAMFCBF-BNSUEQOYSA-N,3.89,9.5,0.0013,NaN,NaN,NaN,NaN,NaN,NaN,NaN,NaN,NaN,NaN,NaN
Menthol,HMDB03352,0.995,2,m,NA,0.2525,0,CC(C)[C@@H]1CC[C@@H](C)C[C@H]1O,InChIKey=NOOLISFMXDJSKH-KXUCPTDWSA-N,14.58,-3,0.064,NaN,NaN,NaN,NaN,NaN,NaN,NaN,NaN,NaN,NaN,NaN
Alpha-Linolenic acid,HMDB01388,0.995,3,t,7.57,0.1708,-1,CC\C=C/C\C=C/C\C=C/CCCCCCCC(O)=O,InChIKey=DTOSIQBPPRVQHS-PDBXOOCHSA-N,11.32,1.82,7.383333333,NaN,NaN,NaN,NaN,NaN,NaN,NaN,NaN,NaN,NaN,NaN
CE(16:0),HMDB00885,0.995,2,m,NA,0.0263,0,[H][C@@]1(CC[C@@]2([H])[C@]3([H])CC=C4C[C@H](CC[C@]4(C)[C@@]3([H])CC[C@]12C)OC(=O)CCCCCCCCCCCCCCC)[C@H](C)CCCC(C)C,InChIKey=BBJQPKLGPMQWBU-JADYGXMDSA-N,1.87,10,297.73,NaN,NaN,NaN,NaN,NaN,NaN,NaN,NaN,NaN,NaN,NaN
CE(18:2(9Z.12Z)),HMDB00610,0.995,4,m,NA,0.2697,0,CCCCC\C=C/C\C=C/CCCCCCCC(=O)O[C@H]1CC[C@@]2(C)C(=CC[C@@]3([H])[C@]4([H])CC[C@]([H])([C@H](C)CCCC(C)C)[C@@]4(C)CC[C@]23[H])C1,InChIKey=NAACPBBQTFFYQB-LJAITQKLSA-N,1.87,10,NaN,NaN,NaN,NaN,NaN,NaN,NaN,NaN,NaN,NaN,NaN,NaN
Deoxycorticosterone,HMDB00016,0.995,1,m,NA,0.0651,0,[H][C@@]12CC[C@H](C(=O)CO)[C@@]1(C)CC[C@@]1([H])[C@@]2([H])CCC2=CC(=O)CC[C@]12C,InChIKey=ZESRJSPZRDMNHY-YFWFAHHUSA-N,-1.9,-2.7,NaN,NaN,NaN,NaN,NaN,NaN,NaN,NaN,NaN,NaN,NaN,NaN
Ethyl isopropyl ketone,HMDB05846,0.995,3,t,7.29,0.3035,0,CCC(=O)C(C)C,InChIKey=HYTRYEXINDDXJK-UHFFFAOYSA-N,1.87,10,NaN,NaN,NaN,NaN,NaN,NaN,NaN,NaN,NaN,NaN,NaN,NaN
Nutriacholic acid,HMDB00467,0.995,1,m,NA,0.0596,-1,[H][C@@]12CCC([C@@H](C)CCC(O)=O)[C@@]1(C)CC[C@@]1([H])[C@@]2([H])C(=O)C[C@]2([H])C[C@H](O)CC[C@]12C,InChIKey=DXOCDBGWDZAYRQ-QPVZPPSOSA-N,3.78,-0.78,NaN,NaN,NaN,NaN,NaN,NaN,NaN,NaN,NaN,NaN,NaN,NaN
Taurodeoxycholic acid,HMDB00896,0.995,3,d,4.85,0.6126,-1,[H][C@@]1(CC[C@@]2([H])[C@]3([H])CC[C@]4([H])C[C@H](O)CC[C@]4(C)[C@@]3([H])C[C@H](O)[C@]12C)[C@H](C)CCC(=O)NCCS(O)(=O)=O,InChIKey=AWDRATDZQPNJFN-VAYUFCLWSA-N,1.86,-6.7,NaN,NaN,NaN,NaN,NaN,NaN,NaN,NaN,NaN,NaN,NaN,NaN
Tetrahydrocortisone,HMDB00903,0.995,1,td,NA,0.0021,0,[H][C@@]12CC[C@](O)(C(=O)CO)[C@@]1(C)CC(=O)[C@@]1([H])[C@@]2([H])CC[C@@]2([H])C[C@@H](O)CC[C@]12C,InChIKey=SYGWGHVTLUBCEM-SDYDLROXSA-N,15.56,10.9,NaN,0.51,NaN,NaN,NaN,NaN,NaN,NaN,NaN,NaN,NaN,NaN
L-Alpha-aminobutyric acid,HMDB00452,0.997,3,t,7.58,1,0,CC[C@H](N)C(O)=O,InChIKey=QWCKQJZIFLGMSD-VKHMYHEASA-N,1.87,10,22,0.77875,NaN,NaN,3.33,NaN,NaN,NaN,NaN,NaN,NaN,NaN
Chenodeoxycholic acid,HMDB00518,1,1,td,14.19 3.21,0.0583,-1,[H][C@@]1(CC[C@@]2([H])[C@]3([H])[C@H](O)C[C@]4([H])C[C@H](O)CC[C@]4(C)[C@@]3([H])CC[C@]12C)[C@H](C)CCC(O)=O,InChIKey=RUDATBOHQWOJDD-BSWAIDMHSA-N,2.15,-4.1,1.165,NaN,NaN,NaN,NaN,NaN,NaN,NaN,NaN,NaN,NaN,NaN
Progesterone,HMDB01830,1.005,1,m,NA,0.0509,0,[H][C@@]12CC[C@H](C(C)=O)[C@@]1(C)CC[C@@]1([H])[C@@]2([H])CCC2=CC(=O)CC[C@]12C,InChIKey=RJKFOVLPORLFTN-LEKSSAKUSA-N,11.17,-6.2,0.0025,NaN,NaN,NaN,NaN,NaN,NaN,NaN,NaN,NaN,NaN,NaN
Androstenedione,HMDB00053,1.005,4,m,NA,0.0581,0,[H][C@@]12CCC(=O)[C@@]1(C)CC[C@@]1([H])[C@@]2([H])CCC2=CC(=O)CC[C@]12C,InChIKey=AEMFNILZOJDQLW-QAGGRKNESA-N,18.2,-7.4,0.0059,0.0068,NaN,NaN,NaN,NaN,NaN,NaN,NaN,NaN,NaN,NaN
Glycocholic acid,HMDB00138,1.005,3,m,NA,0.3513,-1,[H][C@@]12CC[C@H]([C@H](C)CCC(=O)NCC(O)=O)[C@@]1(C)[C@@H](O)C[C@@]1([H])[C@@]2([H])[C@H](O)CC2C[C@H](O)CC[C@]12C,InChIKey=RFDAIACWWDREDC-MZMBZMQMSA-N,4.55,8.85,0.06,0.42,NaN,NaN,NaN,NaN,NaN,NaN,NaN,NaN,NaN,NaN
Lithocholic acid,HMDB00761,1.005,2,m,NA,0.0458,-1,[H][C@@]12CC[C@H]([C@H](C)CCC(O)=O)[C@@]1(C)CC[C@@]1([H])[C@@]2([H])CCC2C[C@H](O)CC[C@]12C,InChIKey=SMEROWZSTRWXGI-YPLGJCPNSA-N,1.77,-1.8,0.33,NaN,NaN,NaN,NaN,NaN,NaN,NaN,NaN,NaN,NaN,NaN
Beta-Leucine,HMDB03640,1.005,6,dd,9.08 6.88,1,0,CC(C)[C@@H](N)CC(O)=O,InChIKey=GLUJNGJDHCTUJY-YFKPBYRVSA-N,14.58,-3,4.8,NaN,NaN,NaN,NaN,NaN,NaN,NaN,NaN,NaN,NaN,NaN
Androstanedione,HMDB00899,1.005,1,m,NA,0.059,0,[H][C@@]12CCC(=O)[C@@]1(C)CC[C@@]1([H])[C@@]2([H])CC[C@@]2([H])CC(=O)CC[C@]12C,InChIKey=RAJWOBJTTGJROA-WZNAKSSCSA-N,1.86,-3,NaN,NaN,NaN,NaN,NaN,NaN,NaN,NaN,NaN,NaN,NaN,NaN
Epiandrosterone,HMDB00365,1.005,2,m,NA,0.12,0,[H][C@@]12CCC(=O)[C@@]1(C)CC[C@@]1([H])[C@@]2([H])CCC2C[C@@H](O)CC[C@]12C,InChIKey=QGXBDMJGAMFCBF-QRIARFFBSA-N,9.61,-3,NaN,NaN,NaN,NaN,NaN,NaN,NaN,NaN,NaN,NaN,NaN,NaN
Epitestosterone,HMDB00628,1.005,1,m,NA,0.0239,0,[H][C@@]12CC[C@@H](O)[C@@]1(C)CC[C@@]1([H])[C@@]2([H])CCC2=CC(=O)CC[C@]12C,InChIKey=MUMGGOZAMZWBJJ-KZYORJDKSA-N,3.89,4.89,NaN,NaN,NaN,NaN,NaN,NaN,NaN,NaN,NaN,NaN,NaN,NaN
L-Isoleucine,HMDB00172,1.012,4,d,7.001,NA,0,CC[C@H](C)[C@H](N)C(O)=O,InChIKey=AGPKZVBTJJNPAG-WHFBIAKZSA-N,1.7,9.29,61.35,1.787933333,NaN,NA,7.134,NaN,NaN,NaN,NaN,NaN,NaN,NaN
Dehydroepiandrosterone,HMDB00077,1.015,1,m,NA,0.0589,0,C[C@]12CCC3C(CC=C4C[C@@H](O)CC[C@]34C)C1CCC2=O,InChIKey=FMGSKLZLMKYGDP-INNQQZFDSA-N,1.49,9.22,0.023,0.0658,NaN,0.0033,NaN,NaN,NaN,NaN,NaN,NaN,NaN,NaN
Lathosterol,HMDB01170,1.015,1,t,9.46,0.0036,0,[H][C@@]1(CC[C@@]2([H])C3=CC[C@@]4([H])C[C@@H](O)CC[C@]4(C)[C@@]3([H])CC[C@]12C)[C@H](C)CCCC(C)C,InChIKey=IZVFFXVYBHFIHY-SKCNUYALSA-N,1.57,-2.4,3.905,NaN,NaN,NaN,NaN,NaN,NaN,NaN,NaN,NaN,NaN,NaN
2-Ethylacrylic acid,HMDB01862,1.015,3,t,7.46,1,-1,CCC(=C)C(O)=O,InChIKey=WROUWQQRXUBECT-UHFFFAOYSA-N,3.28,9.83,NA,NA,NA,NA,NA,NA,NA,NA,NA,NA,NA,NA
3a.6a.7b-Trihydroxy-5b-cholanoic acid,HMDB00364,1.015,1,m,NA,0.0961,-1,[H][C@@]12CC[C@H]([C@H](C)CCC(O)=O)[C@@]1(C)CC[C@@]1([H])[C@@]2([H])[C@@H](O)[C@H](O)[C@]2([H])C[C@H](O)CC[C@]12C,InChIKey=DKPMWHFRUGMUKF-NTPBNISXSA-N,1.08,-3.4,NA,NA,NA,NA,NA,NA,NA,NA,NA,NA,NA,NA
3a.6b.7b-Trihydroxy-5b-cholanoic acid,HMDB00415,1.015,1,m,NA,0.3091,-1,[H][C@@]12CC[C@H]([C@H](C)CCC(O)=O)[C@@]1(C)CC[C@@]1([H])[C@@]2([H])[C@@H](O)[C@@H](O)[C@]2([H])C[C@H](O)CC[C@]12C,InChIKey=DKPMWHFRUGMUKF-CRKPLTDNSA-N,3.85,-3,NA,NA,NA,NA,NA,NA,NA,NA,NA,NA,NA,NA
Epietiocholanolone,HMDB00546,1.015,1,s,NA,1,0,[H][C@@]12CCC(=O)[C@@]1(C)CC[C@@]1([H])[C@@]2([H])CC[C@]2([H])C[C@@H](O)CC[C@]12C,InChIKey=QGXBDMJGAMFCBF-XRJZGPCZSA-N,4.14,-2.8,NaN,NaN,NaN,NaN,NaN,NaN,NaN,NaN,NaN,NaN,NaN,NaN
3-Hexanone,HMDB00753,1.02,2,t,7.33,0.9208,0,CCCC(=O)CC,InChIKey=PFCHFHIRKBAQGU-UHFFFAOYSA-N,18.88,-0.81,NaN,NaN,NaN,NaN,NaN,NaN,NaN,NaN,NaN,NaN,NaN,NaN
Vitamin D3,HMDB00876,1.025,1,q,9.02,0.0168,0,CC(C)CCC[C@@H](C)[C@H]1CCC2\C(CCC[C@]12C)=C\C=C1\C[C@@H](O)CCC1=C,InChIKey=QYSXJUFSXHHAJI-QWSSABAFSA-N,1.1,-3.6,0.03705,NaN,NaN,0.006,NaN,NaN,NaN,NaN,NaN,NaN,NaN,NaN
Beta-Sitosterol,HMDB00852,1.025,3,s,NA,0.0614,0,[H][C@@]1(CC[C@@]2([H])[C@]3([H])CC=C4C[C@@H](O)CC[C@]4(C)[C@@]3([H])CC[C@]12C)[C@H](C)CC[C@@H](CC)C(C)C,InChIKey=KZJWDPNRJALLNS-VJSFXXLFSA-N,-33,-2,9.744,NaN,NaN,NaN,NaN,NaN,NaN,NaN,NaN,NaN,NaN,NaN
Stearic acid,HMDB00827,1.025,8,t,6.91,0.116,-1,CCCCCCCCCCCCCCCCCC(O)=O,InChIKey=QIQXTHQIDYTFRH-UHFFFAOYSA-N,18.2,8.5,49.25475,1.5,NaN,6.88,NaN,NaN,NaN,NaN,NaN,NaN,NaN,NaN
PC(16:0/16:0),HMDB00564,1.025,6,t,6.89,0.1255,0,CCCCCCCCCCCCCCCC(=O)OC[C@H](COP([O-])(=O)OCC[N+](C)(C)C)OC(=O)CCCCCCCCCCCCCCC,InChIKey=KILNVBDSWZSGLL-KXQOOQHDSA-N,4.6,-2.9,584.557,NaN,NaN,NaN,NaN,NaN,NaN,NaN,NaN,NaN,NaN,NaN
Cholesterol,HMDB00067,1.025,7,s,NA,1,0,[H][C@@]12CC[C@H]([C@H](C)CCCC(C)C)[C@@]1(C)CC[C@@]1([H])[C@@]2([H])CC=C2CC(O)CC[C@]12C,InChIKey=HVYWMOMLDIMFJA-FNOPAARDSA-N,3.17,-0.54,3567.92,NaN,NaN,NA,6.31,NaN,NaN,NaN,NaN,NaN,NaN,NaN
16-Dehydroprogesterone,HMDB00995,1.025,1,ddd,NA,0.0658,0,[H][C@@]12CC=C(C(C)=O)[C@@]1(C)CC[C@@]1([H])[C@@]2([H])CCC2=CC(=O)CC[C@]12C,InChIKey=VRRHHTISESGZFN-RKFFNLMFSA-N,2.52,-0.94,NA,NA,NA,NA,NA,NA,NA,NA,NA,NA,NA,NA
5alpha-Cholestanone,HMDB00871,1.025,4,s,NA,1,0,[H][C@@]1(CC[C@@]2([H])[C@]3([H])CC[C@@]4([H])CC(=O)CC[C@]4(C)[C@@]3([H])CC[C@]12C)[C@H](C)CCCC(C)C,InChIKey=PESKGJQREUXSRR-UXIWKSIVSA-N,1.78,4.8,NA,NA,NA,NA,NA,NA,NA,NA,NA,NA,NA,NA
Azythromycin,HMDB01916,1.025,3,s,NA,0.1353,2,CC[C@@H]1OC(=O)[C@H](C)[C@@H](O[C@@H]2C[C@](C)(OC)[C@H](O)[C@@H](C)O2)[C@@H](C)[C@H](O[C@H]2O[C@@H](C)C[C@H]([C@@H]2O)N(C)C)[C@@](C)(O)C[C@H](C)CN(C)[C@@H](C)[C@@H](O)[C@]1(C)O,InChIKey=MQTOSJVFKKJCRP-HHZDEWPHSA-N,3.84,1.99,NA,NA,NA,NA,NA,NA,NA,NA,NA,NA,NA,NA
All-trans-retinoic acid,HMDB01852,1.025,2,s,NA,0.9988,-1,C\C(\C=C\C1=C(C)CCCC1(C)C)=C/C=C/C(/C)=C/C(O)=O,InChIKey=SHGAZHPCJJPHSC-YCNIQYBTSA-N,10.09,5.81,NaN,NaN,NaN,NaN,NaN,NaN,NaN,NaN,NaN,NaN,NaN,NaN
Aldosterone,HMDB00037,1.035,3,m,NA,0.0355,0,C[C@]12CCC(=O)C=C1CCC1C3CC[C@H](C(=O)CO)[C@]3(C[C@H](O)C21)C=O,InChIKey=PQSUYGKTWSAVDQ-SRPWZAMTSA-N,4.03,-3,6.80E-05,0.01,NaN,NA,NaN,NaN,NaN,NaN,NaN,NaN,NaN,NaN
Etiocholanolone,HMDB00490,1.035,1,td,NA,0.0645,0,[H][C@@]12CCC(=O)[C@@]1(C)CC[C@@]1([H])[C@@]2([H])CC[C@]2([H])C[C@H](O)CC[C@]12C,InChIKey=QGXBDMJGAMFCBF-BNSUEQOYSA-N,3.89,9.5,0.0013,NaN,NaN,NaN,NaN,NaN,NaN,NaN,NaN,NaN,NaN,NaN
17-alpha.20-alpha-Dihydroxypregn-4-en-3-one,HMDB11653,1.035,3,d,6.27,0.5794,0,[H][C@@]12CC[C@](O)([C@H](C)O)[C@@]1(C)CC[C@@]1([H])[C@@]2([H])CCC2=CC(=O)CC[C@]12C,InChIKey=MASCESDECGBIBB-HNXXTFFGSA-N,1.86,-3,NA,NA,NA,NA,NA,NA,NA,NA,NA,NA,NA,NA
Epi-coprostanol,HMDB01569,1.035,1,m,NA,0.0398,0,[H][C@@]1(CC[C@@]2([H])[C@]3([H])CC[C@@]4([H])C[C@H](O)CC[C@]4(C)[C@@]3([H])CC[C@]12C)[C@H](C)CCCC(C)C,InChIKey=QYIXCDOBOSTCEI-FBVYSKEZSA-N,1.36,-1.4,NaN,NaN,NaN,NaN,NaN,NaN,NaN,NaN,NaN,NaN,NaN,NaN
Ergocalciferol,HMDB00900,1.035,3,d,6.6,0.0508,0,CC(C)[C@@H](C)\C=C\[C@@H](C)[C@H]1CC[C@@]2([H])\C(CCC[C@]12C)=C\C=C1\C[C@@H](O)CCC1=C,InChIKey=MECHNRXZTMCUDQ-RKHKHRCZSA-N,3.25,-6.3,NaN,NaN,NaN,0.008,NaN,NaN,NaN,NaN,NaN,NaN,NaN,NaN
Stigmasterol,HMDB00937,1.035,2,s,NA,1,0,CC[C@H](\C=C\[C@@H](C)[C@@]1([H])CC[C@@]2([H])[C@]3([H])CC=C4C[C@@H](O)CC[C@]4(C)[C@@]3([H])CC[C@]12C)C(C)C,InChIKey=HCXVJBMSMIARIN-PHZDYDNGSA-N,16.3,5.29,NaN,NaN,NaN,NaN,NaN,NaN,NaN,NaN,NaN,NaN,NaN,NaN
Testosterone,HMDB00234,1.035,4,m,NA,0.0804,0,[H][C@@]12CC[C@H](O)[C@@]1(C)CC[C@@]1([H])[C@@]2([H])CCC2=CC(=O)CC[C@]12C,InChIKey=MUMGGOZAMZWBJJ-DYKIIFRCSA-N,4.56,-2.8,NaN,1.07,NaN,NaN,NaN,NaN,NaN,NaN,NaN,NaN,NaN,NaN
L-Valine,HMDB00883,1.044,3,d,7.05,0.9614,0,CC(C)[C@H](N)C(O)=O,InChIKey=KZSNJWFQEVHDMF-BYPYZUCNSA-N,1.4,9.51,237.2,NA,NaN,NA,18,NaN,NaN,NaN,NaN,NaN,NaN,NaN
Dehydroepiandrosterone,HMDB00077,1.045,3,s,NA,1,0,C[C@]12CCC3C(CC=C4C[C@@H](O)CC[C@]34C)C1CCC2=O,InChIKey=FMGSKLZLMKYGDP-INNQQZFDSA-N,1.49,9.22,0.023,0.0658,NaN,0.0033,NaN,NaN,NaN,NaN,NaN,NaN,NaN,NaN
7-Ketocholesterol,HMDB00501,1.045,3,m,NA,0.0526,0,[H][C@@]12CCC([C@H](C)CCCC(C)C)[C@@]1(C)CC[C@@]1([H])[C@@]2([H])C(=O)C=C2CC(O)CC[C@]12C,InChIKey=YIKKMWSQVKJCOP-QJFKPLHKSA-N,4.65,-6.7,0.056333333,NaN,NaN,NaN,NaN,NaN,NaN,NaN,NaN,NaN,NaN,NaN
7-Dehydrocholesterol,HMDB00032,1.045,4,m,NA,0.1203,0,[H][C@@]12CC[C@H]([C@H](C)CCCC(C)C)[C@@]1(C)CC[C@@]1([H])C2=CC=C2C[C@@H](O)CC[C@]12C,InChIKey=UCTLRSWJYQTBFZ-DDPQNLDTSA-N,11.25,4.99,5,0.029,NaN,NaN,0,NaN,NaN,NaN,NaN,NaN,NaN,NaN
Campesterol,HMDB02869,1.045,11,m,NA,0.0148,0,[H][C@@]12CC[C@H]([C@H](C)CC[C@H](C)C(C)C)[C@@]1(C)CC[C@@]1([H])[C@@]2([H])CC=C2C[C@@H](O)CC[C@]12C,InChIKey=SGNBVLSWZMBQTH-ZRUUVFCLSA-N,1.87,8,8.346666667,NaN,NaN,NaN,NaN,NaN,NaN,NaN,NaN,NaN,NaN,NaN
Beta-Sitosterol,HMDB00852,1.045,11,m,NA,0.0067,0,[H][C@@]1(CC[C@@]2([H])[C@]3([H])CC=C4C[C@@H](O)CC[C@]4(C)[C@@]3([H])CC[C@]12C)[C@H](C)CC[C@@H](CC)C(C)C,InChIKey=KZJWDPNRJALLNS-VJSFXXLFSA-N,-33,-2,9.744,NaN,NaN,NaN,NaN,NaN,NaN,NaN,NaN,NaN,NaN,NaN
CE(16:0),HMDB00885,1.045,3,s,NA,0.2261,0,[H][C@@]1(CC[C@@]2([H])[C@]3([H])CC=C4C[C@H](CC[C@]4(C)[C@@]3([H])CC[C@]12C)OC(=O)CCCCCCCCCCCCCCC)[C@H](C)CCCC(C)C,InChIKey=BBJQPKLGPMQWBU-JADYGXMDSA-N,1.87,10,297.73,NaN,NaN,NaN,NaN,NaN,NaN,NaN,NaN,NaN,NaN,NaN
11a-Hydroxyprogesterone,HMDB00920,1.045,1,m,NA,0.0893,0,[H][C@@]12CCC(C(C)=O)[C@@]1(C)C[C@@H](O)[C@@]1([H])[C@@]2([H])CCC2=CC(=O)CC[C@]12C,InChIKey=BFZHCUBIASXHPK-ODYOLWGQSA-N,16.38,10.67,NA,NA,NA,NA,NA,NA,NA,NA,NA,NA,NA,NA
13-cis-Retinoic acid,HMDB06219,1.045,6,s,NA,0.4912,-1,C\C(\C=C\C1=C(C)CCCC1(C)C)=C/C=C/C(/C)=C\C(O)=O,InChIKey=SHGAZHPCJJPHSC-XFYACQKRSA-N,0.38,-3.7,NaN,NaN,NaN,NaN,NaN,NaN,NaN,NaN,NaN,NaN,NaN,NaN