Metabolite,HMDB Name,Shift (ppm),Hs,Type,J (Hz),Height,Physiological Charge,SMILES,InChlKey,pKa (Strongest Acidic),pKa (Strongest Basic),Blood,Urine,Feces,Saliva,Cerebrospinal Fluid (CSF),Amniotic Fluid,Aqueous Humour,Ascites Fluid,Breast Milk,Lymph,Sweat,Tears
2-Methoxyestradiol,HMDB00405,1.285,6,m,NA,0.0503,0,[H][C@@]12CC[C@H](O)[C@@]1(C)CC[C@]1([H])C3=C(CC[C@@]21[H])C=C(O)C(OC)=C3,InChIKey=CQOQDQWUFQDJMK-SSTWWWIQSA-N,4.02,-1.4,0.01,NaN,NaN,NaN,NaN,NaN,NaN,NaN,NaN,NaN,NaN,NaN
L-Octanoylcarnitine,HMDB00791,1.285,7,m,NA,0.1366,0,CCCCCCCC(=O)O[C@H](CC([O-])=O)C[N+](C)(C)C,InChIKey=CXTATJFJDMJMIY-CYBMUJFWSA-N,3.6,3.19,0.1755,NaN,NaN,NaN,NaN,NaN,NaN,NaN,NaN,NaN,NaN,NaN
Decanoylcarnitine,HMDB00651,1.285,11,m,NA,0.2489,0,CCCCCCCCCC(=O)OC(CC([O-])=O)C[N+](C)(C)C,InChIKey=LZOSYCMHQXPBFU-UHFFFAOYSA-N,5,-6.2,0.2005,NaN,NaN,NaN,NaN,NaN,NaN,NaN,NaN,NaN,NaN,NaN
Arachidic acid,HMDB02212,1.285,81,m,NA,1,-1,CCCCCCCCCCCCCCCCCCCC(O)=O,InChIKey=VKOBVWXKNCXXDE-UHFFFAOYSA-N,2.26,-3.6,0.238,NaN,NaN,NaN,NaN,NaN,NaN,NaN,NaN,NaN,NaN,NaN
3-Hydroxydodecanoic acid,HMDB00387,1.285,14,m,NA,0.7202,-1,CCCCCCCCCC(O)CC(O)=O,InChIKey=MUCMKTPAZLSKTL-UHFFFAOYSA-N,18.3,-0.13,0.3,NaN,NaN,NaN,NaN,NaN,NaN,NaN,NaN,NaN,NaN,NaN
Lathosterol,HMDB01170,1.285,2,m,NA,0.0079,0,[H][C@@]1(CC[C@@]2([H])C3=CC[C@@]4([H])C[C@@H](O)CC[C@]4(C)[C@@]3([H])CC[C@]12C)[C@H](C)CCCC(C)C,InChIKey=IZVFFXVYBHFIHY-SKCNUYALSA-N,1.57,-2.4,3.905,NaN,NaN,NaN,NaN,NaN,NaN,NaN,NaN,NaN,NaN,NaN
Caprylic acid,HMDB00482,1.285,4,d,4.76,1,-1,CCCCCCCC(O)=O,InChIKey=WWZKQHOCKIZLMA-UHFFFAOYSA-N,11.61,9.19,5.25,NaN,NaN,NaN,NaN,NaN,NaN,NaN,NaN,NaN,NaN,NaN
Dodecanoic acid,HMDB00638,1.285,16,m,NA,1,-1,CCCCCCCCCCCC(O)=O,InChIKey=POULHZVOKOAJMA-UHFFFAOYSA-N,4.65,-2.2,5.82225,0.03,NaN,NaN,NaN,NaN,NaN,NaN,NaN,NaN,NaN,NaN
Capric acid,HMDB00511,1.285,12,br. s.,NA,1,-1,CCCCCCCCCC(O)=O,InChIKey=GHVNFZFCNZKVNT-UHFFFAOYSA-N,2.5,-9.7,11,NaN,NaN,NaN,NaN,NaN,NaN,NaN,NaN,NaN,NaN,NaN
Hydroxycobalamin,HMDB02308,1.285,2,s,NA,0.0685,2,[Co++].O.OC[C@H]1O[C@@]([H])([C@H](O)[C@]1([H])OP(=O)([O-])O[C@H](C)CNC(=O)CC[C@]1(C)[C@@H](CC(=O)N)[C@@]2([H])[N-]\C1=C(C)/C1=N/C(=C\C3=N\C(=C(C)/C4=N[C@]2(C)[C@@](C)(CC(=O)N)[C@@H]4CCC(=O)N)\[C@@](C)(CC(=O)N)[C@@H]3CCC(=O)N)/C(C)(C)[C@@H]1CCC(=O)N)N1C=NC2=C1C=C(C)C(C)=C2,InChIKey=DQOCFCZRZOAIBN-WZHZPDAFSA-L,2.45,-1.9,NA,NA,NA,NA,NA,NA,NA,NA,NA,NA,NA,NA
Octacosanoic acid,HMDB02348,1.285,48,m,NA,0.0014,-1,CCCCCCCCCCCCCCCCCCCCCCCCCCCC(O)=O,InChIKey=UTOPWMOLSKOLTQ-UHFFFAOYSA-N,12.18,10,NA,NA,NA,NA,NA,NA,NA,NA,NA,NA,NA,NA
Undecanoic acid,HMDB00947,1.285,14,br. s.,NA,1,-1,CCCCCCCCCCC(O)=O,InChIKey=ZDPHROOEEOARMN-UHFFFAOYSA-N,1.8,4.79,NA,NA,NA,NA,NA,NA,NA,NA,NA,NA,NA,NA
2-Oxohexane,HMDB05842,1.285,2,m,NA,0.1742,0,CCCCC(C)=O,InChIKey=QQZOPKMRPOGIEB-UHFFFAOYSA-N,1.87,10,NaN,NaN,NaN,NaN,NaN,NaN,NaN,NaN,NaN,NaN,NaN,NaN
Estradiol,HMDB00151,1.285,7,m,NA,0.0744,0,[H][C@@]12CC[C@H](O)[C@@]1(C)CC[C@]1([H])C3=C(CC[C@@]21[H])C=C(O)C=C3,InChIKey=VOXZDWNPVJITMN-ZBRFXRBCSA-N,1.86,-6.7,NaN,NaN,NaN,NA,NaN,NaN,NaN,NaN,NaN,NaN,NaN,NaN
Octanal,HMDB01140,1.285,5,m,NA,NA,0,CCCCCCCC=O,InChIKey=NUJGJRNETVAIRJ-UHFFFAOYSA-N,1.94,-6.3,NaN,NaN,NaN,NaN,NaN,NaN,NaN,NaN,NaN,NaN,NaN,NaN
Tetradecanedioic acid,HMDB00872,1.285,16,br. s.,NA,1,-2,OC(=O)CCCCCCCCCCCCC(O)=O,InChIKey=HQHCYKULIHKCEB-UHFFFAOYSA-N,13.55,4.95,NaN,NaN,NaN,NaN,NaN,NaN,NaN,NaN,NaN,NaN,NaN,NaN
Verapamil,HMDB01850,1.285,1,m,NA,0.021,1,COC1=C(OC)C=C(CCN(C)CCCC(C#N)(C(C)C)C2=CC(OC)=C(OC)C=C2)C=C1,InChIKey=SGTNSNPWRIOYBX-UHFFFAOYSA-N,12.45,-0.16,NaN,NaN,NaN,NaN,NaN,NaN,NaN,NaN,NaN,NaN,NaN,NaN
Tridecanoic acid,HMDB00910,1.287,18,m,NA,0.0534,-1,CCCCCCCCCCCCC(O)=O,InChIKey=SZHOJFHSIKHZHA-UHFFFAOYSA-N,0.99,-3.5,NaN,NaN,NaN,NaN,NaN,NaN,NaN,NaN,NaN,NaN,NaN,NaN
Rhamnose,HMDB00849,1.288,6,m,NA,1,0,C[C@@H]1OC(O)[C@H](O)[C@H](O)[C@H]1O,InChIKey=SHZGCJCMOBCMKK-JFNONXLTSA-N,0.89,-1.5,NaN,NaN,NaN,NaN,NaN,NaN,NaN,NaN,NaN,NaN,NaN,NaN
Androstenedione,HMDB00053,1.295,8,m,NA,0.1039,0,[H][C@@]12CCC(=O)[C@@]1(C)CC[C@@]1([H])[C@@]2([H])CCC2=CC(=O)CC[C@]12C,InChIKey=AEMFNILZOJDQLW-QAGGRKNESA-N,18.2,-7.4,0.0059,0.0068,NaN,NaN,NaN,NaN,NaN,NaN,NaN,NaN,NaN,NaN
Dehydroepiandrosterone,HMDB00077,1.295,2,m,NA,0.116,0,C[C@]12CCC3C(CC=C4C[C@@H](O)CC[C@]34C)C1CCC2=O,InChIKey=FMGSKLZLMKYGDP-INNQQZFDSA-N,1.49,9.22,0.023,0.0658,NaN,0.0033,NaN,NaN,NaN,NaN,NaN,NaN,NaN,NaN
Decanal,HMDB11623,1.295,12,m,NA,0.2653,0,CCCCCCCCCC=O,InChIKey=KSMVZQYAVGTKIV-UHFFFAOYSA-N,1.86,-3,0.11,NaN,NaN,NaN,NaN,NaN,NaN,NaN,NaN,NaN,NaN,NaN
Caproic acid,HMDB00535,1.295,1,m,NA,0.3291,-1,CCCCCC(O)=O,InChIKey=FUZZWVXGSFPDMH-UHFFFAOYSA-N,10.28,8.13,17,NaN,NaN,NaN,NaN,NaN,NaN,NaN,NaN,NaN,NaN,NaN
SM(d18:1/18:0),HMDB01348,1.295,65,m,NA,1,0,CCCCCCCCCCCCCCCCCC(=O)N[C@@]([H])(COP(O)(=O)OCC[N+](C)(C)C)[C@]([H])(O)\C=C\CCCCCCCCCCCCC,InChIKey=LKQLRGMMMAHREN-YJFXYUILSA-O,1.86,-6.7,157.1,NaN,NaN,0.121,NaN,NaN,NaN,NaN,NaN,NaN,NaN,NaN
Capryloylglycine,HMDB00832,1.295,8,m,NA,1,-1,CCCCCCCC(=O)NCC(O)=O,InChIKey=SAVLIIGUQOSOEP-UHFFFAOYSA-N,3.15,4.95,NA,NA,NA,NA,NA,NA,NA,NA,NA,NA,NA,NA
Heneicosanoic acid,HMDB02345,1.295,6,m,NA,0.0501,-1,CCCCCCCCCCCCCCCCCCCCC(O)=O,InChIKey=CKDDRHZIAZRDBW-UHFFFAOYSA-N,11.59,10,NA,NA,NA,NA,NA,NA,NA,NA,NA,NA,NA,NA
TG(16:0/16:0/16:0)[iso],HMDB05356,1.295,76,m,NA,1,0,CCCCCCCCCCCCCCCC(=O)OCC(COC(=O)CCCCCCCCCCCCCCC)OC(=O)CCCCCCCCCCCCCCC,InChIKey=PVNIQBQSYATKKL-UHFFFAOYSA-N,1.87,10,NA,NA,NA,NA,NA,NA,NA,NA,NA,NA,NA,NA
5beta-Coprostanol,HMDB00577,1.295,8,m,NA,0.0308,0,[H][C@@]1(CC[C@@]2([H])[C@]3([H])CC[C@]4([H])C[C@@H](O)CC[C@]4(C)[C@@]3([H])CC[C@]12C)[C@H](C)CCCC(C)C,InChIKey=QYIXCDOBOSTCEI-NWKZBHTNSA-N,4.42,-7.4,NaN,NaN,NaN,NaN,NaN,NaN,NaN,NaN,NaN,NaN,NaN,NaN
DL-2-Aminooctanoic acid,HMDB00991,1.295,8,m,NA,0.0659,0,CCCCCCC(N)C(O)=O,InChIKey=AKVBCGQVQXPRLD-UHFFFAOYSA-N,3.05,9.75,NaN,NaN,NaN,NaN,NaN,NaN,NaN,NaN,NaN,NaN,NaN,NaN
Heptanoic acid,HMDB00666,1.295,6,m,NA,0.8739,-1,CCCCCCC(O)=O,InChIKey=MNWFXJYAOYHMED-UHFFFAOYSA-N,4.79,2.07,NaN,NaN,NaN,NaN,NaN,NaN,NaN,NaN,NaN,NaN,NaN,NaN
Hexanoylcarnitine,HMDB00705,1.295,2,m,NA,0.0958,0,CCCCCC(=O)OC(CC([O-])=O)C[N+](C)(C)C,InChIKey=VVPRQWTYSNDTEA-UHFFFAOYSA-N,11.39,-6.3,NaN,NaN,NaN,NaN,NaN,NaN,NaN,NaN,NaN,NaN,NaN,NaN
Naringin,HMDB02927,1.295,3,dd,6.22 1.05,0.0771,0,C[C@@H]1O[C@@H](O[C@@H]2[C@@H](O)[C@H](O)[C@@H](CO)O[C@H]2OC2=CC(O)=C3C(=O)C[C@H](OC3=C2)C2=CC=C(O)C=C2)[C@H](O)[C@H](O)[C@H]1O,InChIKey=DFPMSGMNTNDNHN-ZPHOTFPESA-N,3.04,-3.3,NaN,NaN,NaN,NaN,NaN,NaN,NaN,NaN,NaN,NaN,NaN,NaN
PA(16:0/16:0),HMDB00674,1.295,48,m,NA,0.3235,-2,CCCCCCCCCCCCCCCC(=O)OC[C@H](COP(O)(O)=O)OC(=O)CCCCCCCCCCCCCCC,InChIKey=PORPENFLTBBHSG-MGBGTMOVSA-N,2.56,10.29,NaN,NaN,NaN,NaN,NaN,NaN,NaN,NaN,NaN,NaN,NaN,NaN
Pelargonic acid,HMDB00847,1.295,10,s,NA,1,-1,CCCCCCCCC(O)=O,InChIKey=FBUKVWPVBMHYJY-UHFFFAOYSA-N,3.16,5,NaN,NaN,NaN,NaN,NaN,NaN,NaN,NaN,NaN,NaN,NaN,NaN
Undecanedioic acid,HMDB00888,1.295,10,s,NA,1,-2,OC(=O)CCCCCCCCCC(O)=O,InChIKey=LWBHHRRTOZQPDM-UHFFFAOYSA-N,1.77,-9.8,NaN,NaN,NaN,NaN,NaN,NaN,NaN,NaN,NaN,NaN,NaN,NaN
2-Octenoic acid,HMDB00392,1.302,4,m,NA,0.6119,-1,CCCCC\C=C/C(O)=O,InChIKey=CWMPPVPFLSZGCY-SREVYHEPSA-N,4.89,-3.2,NA,NA,NA,NA,NA,NA,NA,NA,NA,NA,NA,NA
Etiocholanolone,HMDB00490,1.305,5,m,NA,0.11,0,[H][C@@]12CCC(=O)[C@@]1(C)CC[C@@]1([H])[C@@]2([H])CC[C@]2([H])C[C@H](O)CC[C@]12C,InChIKey=QGXBDMJGAMFCBF-BNSUEQOYSA-N,3.89,9.5,0.0013,NaN,NaN,NaN,NaN,NaN,NaN,NaN,NaN,NaN,NaN,NaN
Sphingosine,HMDB00252,1.305,20,m,NA,1,1,CCCCCCCCCCCCC\C=C\C(O)C(N)CO,InChIKey=WWUZIQQURGPMPG-CCEZHUSRSA-N,10.33,-2.7,0.05,3.85E-05,NaN,NaN,NaN,NaN,NaN,NaN,NaN,NaN,NaN,NaN
Suberic acid,HMDB00893,1.305,4,m,NA,0.5998,-2,OC(=O)CCCCCCC(O)=O,InChIKey=TYFQFVWCELRYAO-UHFFFAOYSA-N,1.78,4.95,3.6,0.25,NaN,NaN,NaN,NaN,NaN,NaN,NaN,NaN,NaN,NaN
Azelaic acid,HMDB00784,1.305,6,m,NA,0.7259,-2,OC(=O)CCCCCCCC(O)=O,InChIKey=BDJRBEYXGGNYIS-UHFFFAOYSA-N,16.45,4.41,27,4.8,NaN,NaN,NaN,NaN,NaN,NaN,NaN,NaN,NaN,NaN
12-Hydroxydodecanoic acid,HMDB02059,1.305,65,m,NA,1,-1,OCCCCCCCCCCCC(O)=O,InChIKey=ZDHCZVWCTKTBRY-UHFFFAOYSA-N,1.9,-3.1,NA,NA,NA,NA,NA,NA,NA,NA,NA,NA,NA,NA
17-alpha.20-alpha-Dihydroxypregn-4-en-3-one,HMDB11653,1.305,1,ddd,NA,0.0403,0,[H][C@@]12CC[C@](O)([C@H](C)O)[C@@]1(C)CC[C@@]1([H])[C@@]2([H])CCC2=CC(=O)CC[C@]12C,InChIKey=MASCESDECGBIBB-HNXXTFFGSA-N,1.86,-3,NA,NA,NA,NA,NA,NA,NA,NA,NA,NA,NA,NA
Hydroxycobalamin,HMDB02308,1.305,3,s,NA,0.0363,2,[Co++].O.OC[C@H]1O[C@@]([H])([C@H](O)[C@]1([H])OP(=O)([O-])O[C@H](C)CNC(=O)CC[C@]1(C)[C@@H](CC(=O)N)[C@@]2([H])[N-]\C1=C(C)/C1=N/C(=C\C3=N\C(=C(C)/C4=N[C@]2(C)[C@@](C)(CC(=O)N)[C@@H]4CCC(=O)N)\[C@@](C)(CC(=O)N)[C@@H]3CCC(=O)N)/C(C)(C)[C@@H]1CCC(=O)N)N1C=NC2=C1C=C(C)C(C)=C2,InChIKey=DQOCFCZRZOAIBN-WZHZPDAFSA-L,2.45,-1.9,NA,NA,NA,NA,NA,NA,NA,NA,NA,NA,NA,NA
TG(10:0/10:0/10:0)[iso],HMDB00548,1.305,36,s,NA,0.4861,0,CCCCCCCCCC(=O)OCC(COC(=O)CCCCCCCCC)OC(=O)CCCCCCCCC,InChIKey=LADGBHLMCUINGV-UHFFFAOYSA-N,4.99,5.15,NA,NA,NA,NA,NA,NA,NA,NA,NA,NA,NA,NA
trans-2-Octenoic acid,HMDB01568,1.305,4,m,NA,0.4719,-1,CCCCC\C=C\C(O)=O,InChIKey=CWMPPVPFLSZGCY-VOTSOKGWSA-N,14.58,-1.3,NA,NA,NA,NA,NA,NA,NA,NA,NA,NA,NA,NA
Uvaol,HMDB02391,1.305,6,m,NA,0.1751,0,[H][C@@]12[C@@H](C)[C@H](C)CC[C@]1(CO)CC[C@]1(C)C2=CC[C@]2([H])[C@@]3(C)CC[C@H](O)C(C)(C)[C@]3([H])CC[C@@]12C,InChIKey=XUARCIYIVXVTAE-ZAPOICBTSA-N,13.56,-6.6,NA,NA,NA,NA,NA,NA,NA,NA,NA,NA,NA,NA
1-Hexadecanol,HMDB03424,1.305,26,m,NA,1,0,CCCCCCCCCCCCCCCCO,InChIKey=BXWNKGSJHAJOGX-UHFFFAOYSA-N,14.58,-3,NaN,NaN,NaN,NaN,NaN,NaN,NaN,NaN,NaN,NaN,NaN,NaN
3-Hydroxydodecanedioic acid,HMDB00413,1.305,10,m,NA,1,-2,OC(CCCCCCCCC(O)=O)CC(O)=O,InChIKey=FYVQCLGZFXHEGL-UHFFFAOYSA-N,18.3,9.59,NaN,NaN,NaN,NaN,NaN,NaN,NaN,NaN,NaN,NaN,NaN,NaN
Octadecanol,HMDB02350,1.305,4,d,6.6,0.0585,0,CCCCCCCCCCCCCCCCCCO,InChIKey=GLDOVTGHNKAZLK-UHFFFAOYSA-N,12.18,10,NaN,NaN,NaN,NaN,NaN,NaN,NaN,NaN,NaN,NaN,NaN,NaN
Pimelic acid,HMDB00857,1.305,2,m,NA,0.2638,-2,OC(=O)CCCCCC(O)=O,InChIKey=WLJVNTCWHIRURA-UHFFFAOYSA-N,1.74,7.47,NaN,NaN,NaN,NaN,NaN,NaN,NaN,NaN,NaN,NaN,NaN,NaN
Tetrahydrocortisone,HMDB00903,1.305,6,m,NA,0.0021,0,[H][C@@]12CC[C@](O)(C(=O)CO)[C@@]1(C)CC(=O)[C@@]1([H])[C@@]2([H])CC[C@@]2([H])C[C@@H](O)CC[C@]12C,InChIKey=SYGWGHVTLUBCEM-SDYDLROXSA-N,15.56,10.9,NaN,0.51,NaN,NaN,NaN,NaN,NaN,NaN,NaN,NaN,NaN,NaN
Venlafaxine,HMDB05016,1.305,1,m,NA,0.0151,1,COC1=CC=C(C=C1)C(CN(C)C)C1(O)CCCCC1,InChIKey=PNVNVHUZROJLTJ-UHFFFAOYSA-N,1.87,10,NaN,NaN,NaN,NaN,NaN,NaN,NaN,NaN,NaN,NaN,NaN,NaN
Vitamin D3,HMDB00876,1.315,5,m,NA,0.041,0,CC(C)CCC[C@@H](C)[C@H]1CCC2\C(CCC[C@]12C)=C\C=C1\C[C@@H](O)CCC1=C,InChIKey=QYSXJUFSXHHAJI-QWSSABAFSA-N,1.1,-3.6,0.03705,NaN,NaN,0.006,NaN,NaN,NaN,NaN,NaN,NaN,NaN,NaN
Stearoylcarnitine,HMDB00848,1.315,2,m,NA,0.0253,0,CCCCCCCCCCCCCCCCCC(=O)OC(CC([O-])=O)C[N+](C)(C)C,InChIKey=FNPHNLNTJNMAEE-UHFFFAOYSA-N,0.83,5,0.06,NaN,NaN,NaN,NaN,NaN,NaN,NaN,NaN,NaN,NaN,NaN
Cholesterol,HMDB00067,1.315,9,m,NA,0.1362,0,[H][C@@]12CC[C@H]([C@H](C)CCCC(C)C)[C@@]1(C)CC[C@@]1([H])[C@@]2([H])CC=C2CC(O)CC[C@]12C,InChIKey=HVYWMOMLDIMFJA-FNOPAARDSA-N,3.17,-0.54,3567.92,NaN,NaN,NA,6.31,NaN,NaN,NaN,NaN,NaN,NaN,NaN
17a-Estradiol,HMDB00429,1.315,5,m,NA,0.0856,0,[H][C@@]12CC[C@@H](O)[C@@]1(C)CC[C@]1([H])C3=C(CC[C@@]21[H])C=C(O)C=C3,InChIKey=VOXZDWNPVJITMN-SFFUCWETSA-N,1.22,-6.1,NaN,2.3,NaN,NaN,NaN,NaN,NaN,NaN,NaN,NaN,NaN,NaN
2-Hydroxydecanedioic acid,HMDB00424,1.315,54,m,NA,1,-2,OC(CCCCCCCC(O)=O)C(O)=O,InChIKey=LPIOYESQKJFWPQ-UHFFFAOYSA-N,4.56,10.12,NaN,NaN,NaN,NaN,NaN,NaN,NaN,NaN,NaN,NaN,NaN,NaN
Androstanedione,HMDB00899,1.315,1,m,NA,0.1186,0,[H][C@@]12CCC(=O)[C@@]1(C)CC[C@@]1([H])[C@@]2([H])CC[C@@]2([H])CC(=O)CC[C@]12C,InChIKey=RAJWOBJTTGJROA-WZNAKSSCSA-N,1.86,-3,NaN,NaN,NaN,NaN,NaN,NaN,NaN,NaN,NaN,NaN,NaN,NaN
Elaidic acid,HMDB00573,1.315,59,m,NA,1,-1,CCCCCCCC\C=C\CCCCCCCC(O)=O,InChIKey=ZQPPMHVWECSIRJ-MDZDMXLPSA-N,2.91,-3,NaN,NaN,NaN,NaN,NaN,NaN,NaN,NaN,NaN,NaN,NaN,NaN
Epiandrosterone,HMDB00365,1.315,6,m,NA,0.1745,0,[H][C@@]12CCC(=O)[C@@]1(C)CC[C@@]1([H])[C@@]2([H])CCC2C[C@@H](O)CC[C@]12C,InChIKey=QGXBDMJGAMFCBF-QRIARFFBSA-N,9.61,-3,NaN,NaN,NaN,NaN,NaN,NaN,NaN,NaN,NaN,NaN,NaN,NaN
Hydroxyoctanoic acid,HMDB00711,1.315,9,m,NA,0.7307,-1,CCCCCCC(O)C(O)=O,InChIKey=JKRDADVRIYVCCY-UHFFFAOYSA-N,17.26,-3.7,NaN,NaN,NaN,NaN,NaN,NaN,NaN,NaN,NaN,NaN,NaN,NaN
Nervonic acid,HMDB02368,1.315,32,m,NA,0.2188,-1,CCCCCCCC\C=C/CCCCCCCCCCCCCC(O)=O,InChIKey=GWHCXVQVJPWHRF-KTKRTIGZSA-N,13.78,10,NaN,NaN,NaN,NaN,NaN,NaN,NaN,NaN,NaN,NaN,NaN,NaN
Octane,HMDB01485,1.315,12,m,NA,1,0,CCCCCCCC,InChIKey=TVMXDCGIABBOFY-UHFFFAOYSA-N,-1.3,-1.4,NaN,NaN,NaN,NaN,NaN,NaN,NaN,NaN,NaN,NaN,NaN,NaN
Sebacic acid,HMDB00792,1.315,8,br. s.,NA,1,-2,OC(=O)CCCCCCCCC(O)=O,InChIKey=CXMXRPHRNRROMY-UHFFFAOYSA-N,4.12,-1.3,NaN,1.9,NaN,NaN,NaN,NaN,NaN,NaN,NaN,NaN,NaN,NaN
Sphinganine,HMDB00269,1.325,25,m,NA,0.4153,1,CCCCCCCCCCCCCCC[C@@H](O)[C@@H](N)CO,InChIKey=OTKJDMGTUTTYMP-ZWKOTPCHSA-N,18.3,-2.4,0.011,0.00023,NaN,NaN,NaN,NaN,NaN,NaN,NaN,NaN,NaN,NaN
Valeric acid,HMDB00892,1.325,13,m,NA,0.065,-1,CCCCC(O)=O,InChIKey=NQPDZGIKBAWPEJ-UHFFFAOYSA-N,1.22,-0.53,0.6,NaN,NaN,NA,NaN,NaN,NaN,NaN,NaN,NaN,NaN,NaN
Alpha-Linolenic acid,HMDB01388,1.325,8,m,NA,0.1,-1,CC\C=C/C\C=C/C\C=C/CCCCCCCC(O)=O,InChIKey=DTOSIQBPPRVQHS-PDBXOOCHSA-N,11.32,1.82,7.383333333,NaN,NaN,NaN,NaN,NaN,NaN,NaN,NaN,NaN,NaN,NaN
5alpha-Cholestanol,HMDB00908,1.325,9,m,NA,0.2876,0,[H][C@@]1(CC[C@@]2([H])[C@]3([H])CC[C@@]4([H])C[C@@H](O)CC[C@]4(C)[C@@]3([H])CC[C@]12C)[C@H](C)CCCC(C)C,InChIKey=QYIXCDOBOSTCEI-QCYZZNICSA-N,4.05,-3,9.26,NaN,NaN,NaN,NaN,NaN,NaN,NaN,NaN,NaN,NaN,NaN
Vaccenic acid,HMDB03231,1.325,23,m,NA,1,-1,CCCCCC\C=C/CCCCCCCCCC(O)=O,InChIKey=UWHZIFQPPBDJPM-FPLPWBNLSA-N,11.41,-2.2,10.7,NaN,NaN,NaN,NaN,NaN,NaN,NaN,NaN,NaN,NaN,NaN
Myristic acid,HMDB00806,1.325,17,m,NA,NA,-1,CCCCCCCCCCCCCC(O)=O,InChIKey=TUNFSRHWOTWDNC-UHFFFAOYSA-N,18.36,4.95,10.84733333,0.06,NaN,NaN,NaN,NaN,NaN,NaN,NaN,NaN,NaN,NaN
Oleic acid,HMDB00207,1.325,20,m,NA,1,-1,CCCCCCCC\C=C/CCCCCCCC(O)=O,InChIKey=ZQPPMHVWECSIRJ-KTKRTIGZSA-N,1.64,-7.2,72.13575,2.68,NaN,NaN,NaN,NaN,NaN,NaN,NaN,NaN,NaN,NaN
3-Hydroxymethylglutaric acid,HMDB00355,1.325,3,s,NA,1,-2,CC(O)(CC(O)=O)CC(O)=O,InChIKey=NPOAOTPXWNWTSH-UHFFFAOYSA-N,1.79,-1.6,NaN,2.2,NaN,NaN,NaN,NaN,NaN,NaN,NaN,NaN,NaN,NaN
5a-Androstane-3b.17b-diol,HMDB00493,1.325,8,m,NA,0.2008,0,[H][C@@]12CC[C@H](O)[C@@]1(C)CC[C@@]1([H])[C@@]2([H])CC[C@@]2([H])C[C@@H](O)CC[C@]12C,InChIKey=CBMYJHIOYJEBSB-YSZCXEEOSA-N,1.47,-3.7,NaN,NaN,NaN,NaN,NaN,NaN,NaN,NaN,NaN,NaN,NaN,NaN
8.11.14-Eicosatrienoic acid,HMDB02925,1.325,12,m,NA,0.424,-1,CCCCC\C=C/C\C=C/C\C=C/CCCCCCC(O)=O,InChIKey=HOBAELRKJCKHQD-QNEBEIHSSA-N,1.86,-3,NaN,NaN,NaN,NaN,NaN,NaN,NaN,NaN,NaN,NaN,NaN,NaN
Epietiocholanolone,HMDB00546,1.325,4,m,NA,0.2623,0,[H][C@@]12CCC(=O)[C@@]1(C)CC[C@@]1([H])[C@@]2([H])CC[C@]2([H])C[C@@H](O)CC[C@]12C,InChIKey=QGXBDMJGAMFCBF-XRJZGPCZSA-N,4.14,-2.8,NaN,NaN,NaN,NaN,NaN,NaN,NaN,NaN,NaN,NaN,NaN,NaN
Nonadecanoic acid,HMDB00772,1.325,30,m,NA,1,-1,CCCCCCCCCCCCCCCCCCC(O)=O,InChIKey=ISYWECDDZWTKFF-UHFFFAOYSA-N,12.58,-3,NaN,NaN,NaN,NaN,NaN,NaN,NaN,NaN,NaN,NaN,NaN,NaN
Oleanolic acid,HMDB02364,1.325,2,m,NA,0.0631,-1,[H][C@@]12CC(C)(C)CC[C@@]1(CC[C@]1(C)C2=CC[C@]2([H])[C@@]3(C)CC[C@H](O)C(C)(C)[C@]3([H])CC[C@@]12C)C(O)=O,InChIKey=MIJYXULNPSFWEK-GTOFXWBISA-N,3.81,10,NaN,NaN,NaN,NaN,NaN,NaN,NaN,NaN,NaN,NaN,NaN,NaN
Suberylglycine,HMDB00953,1.325,5,m,NA,0.8265,-2,OC(=O)CCCCCCC(=O)NCC(O)=O,InChIKey=HXATVKDSYDWTCX-UHFFFAOYSA-N,3.23,4.58,NaN,NaN,NaN,NaN,NaN,NaN,NaN,NaN,NaN,NaN,NaN,NaN
Sulfolithocholic acid,HMDB00907,1.325,6,m,NA,0.1292,-2,[H][C@@]12CC[C@H]([C@H](C)CCC(O)=O)[C@@]1(C)CC[C@@]1([H])[C@@]2([H])CCC2C[C@@H](CC[C@]12C)OS(O)(=O)=O,InChIKey=AXDXVEYHEODSPN-YPLGJCPNSA-N,0.45,9.33,NaN,NaN,NaN,NaN,NaN,NaN,NaN,NaN,NaN,NaN,NaN,NaN
Traumatic acid,HMDB00933,1.325,44,br. s.,NA,1,-2,OC(=O)CCCCCCCC\C=C\C(O)=O,InChIKey=MAZWDMBCPDUFDJ-VQHVLOKHSA-N,7.54,-1.3,NaN,NaN,NaN,NaN,NaN,NaN,NaN,NaN,NaN,NaN,NaN,NaN
L-Threonine,HMDB00167,1.331,59,d,6.585,NA,0,C[C@@H](O)[C@H](N)C(O)=O,InChIKey=AYFVYJQAPQTCCC-GBXIJSLDSA-N,2.93,10,157.5,9.994,NaN,NA,25.0125,NaN,NaN,NaN,NaN,NaN,NaN,NaN
Cortisone,HMDB02802,1.335,4,m,NA,1,0,[H][C@@]12CC[C@](O)(C(=O)CO)[C@@]1(C)CC(=O)[C@@]1([H])[C@@]2([H])CCC2=CC(=O)CC[C@]12C,InChIKey=MFYSYFVPBJMHGN-ZPOLXVRWSA-N,17.79,2.77,0.0624,0.011,NaN,NaN,NaN,NaN,NaN,NaN,NaN,NaN,NaN,NaN
Erucic acid,HMDB02068,1.335,28,m,NA,1,-1,CCCCCCCC\C=C/CCCCCCCCCCCC(O)=O,InChIKey=DPUOLQHDNGRHBS-KTKRTIGZSA-N,1.46,-6.1,0.646,NaN,NaN,NaN,NaN,NaN,NaN,NaN,NaN,NaN,NaN,NaN
Pentadecanoic acid,HMDB00826,1.335,22,m,NA,1,-1,CCCCCCCCCCCCCCC(O)=O,InChIKey=WQEPLUUGTLDZJY-UHFFFAOYSA-N,1.02,3.68,1.561666667,NaN,NaN,NaN,NaN,NaN,NaN,NaN,NaN,NaN,NaN,NaN
L-Lactic acid,HMDB00190,1.335,4,d,6.96,1,-1,C[C@H](O)C(O)=O,InChIKey=JVTAAEKCZFNVCJ-REOHCLBHSA-N,14.58,-3,3621.8,28.21428571,NaN,342.99,1817.75,NaN,NaN,NaN,NaN,NaN,NaN,NaN
11a-Hydroxyprogesterone,HMDB00920,1.335,1,td,NA,0.0595,0,[H][C@@]12CCC(C(C)=O)[C@@]1(C)C[C@@H](O)[C@@]1([H])[C@@]2([H])CCC2=CC(=O)CC[C@]12C,InChIKey=BFZHCUBIASXHPK-ODYOLWGQSA-N,16.38,10.67,NA,NA,NA,NA,NA,NA,NA,NA,NA,NA,NA,NA
5alpha-Cholestanone,HMDB00871,1.335,8,m,NA,0.4065,0,[H][C@@]1(CC[C@@]2([H])[C@]3([H])CC[C@@]4([H])CC(=O)CC[C@]4(C)[C@@]3([H])CC[C@]12C)[C@H](C)CCCC(C)C,InChIKey=PESKGJQREUXSRR-UXIWKSIVSA-N,1.78,4.8,NA,NA,NA,NA,NA,NA,NA,NA,NA,NA,NA,NA
Isovalerylalanine,HMDB00747,1.335,3,d,7.25,1,-1,CC(C)CC(=O)N[C@@H](C)C(O)=O,InChIKey=OJPSNARFDYTAEN-LURJTMIESA-N,4.65,-0.91,NA,NA,NA,NA,NA,NA,NA,NA,NA,NA,NA,NA
Valerylglycine,HMDB00927,1.335,1,m,NA,0.2938,-1,CCCCC(=O)NCC(O)=O,InChIKey=NYZBWOSRZJKQAI-UHFFFAOYSA-N,1.48,4.95,NA,NA,NA,NA,NA,NA,NA,NA,NA,NA,NA,NA
16b-Hydroxyestradiol,HMDB00347,1.335,2,m,NA,0.0933,0,[H][C@@]12C[C@H](O)[C@H](O)[C@@]1(C)CC[C@]1([H])C3=C(CC[C@@]21[H])C=C(O)C=C3,InChIKey=PROQIPRRNZUXQM-ZMSHIADSSA-N,11.47,-3.8,NaN,NaN,NaN,NaN,NaN,NaN,NaN,NaN,NaN,NaN,NaN,NaN
17-Hydroxyprogesterone,HMDB00374,1.335,9,m,NA,0.1043,0,[H][C@@]12CC[C@](O)(C(C)=O)[C@@]1(C)CC[C@@]1([H])[C@@]2([H])CCC2=CC(=O)CC[C@]12C,InChIKey=DBPWSSGDRRHUNT-CEGNMAFCSA-N,7.36,-1.4,NaN,0.0013,NaN,NA,NaN,NaN,NaN,NaN,NaN,NaN,NaN,NaN
2-Ketohexanoic acid,HMDB01864,1.335,23,m,NA,0.3759,-1,CCCCC(=O)C(O)=O,InChIKey=XNIHZNNZJHYHLC-UHFFFAOYSA-N,19.55,4.95,NaN,NaN,NaN,NaN,NaN,NaN,NaN,NaN,NaN,NaN,NaN,NaN
CE(18:2(9Z.12Z)),HMDB00610,1.335,21,m,NA,0.667,0,CCCCC\C=C/C\C=C/CCCCCCCC(=O)O[C@H]1CC[C@@]2(C)C(=CC[C@@]3([H])[C@]4([H])CC[C@]([H])([C@H](C)CCCC(C)C)[C@@]4(C)CC[C@]23[H])C1,InChIKey=NAACPBBQTFFYQB-LJAITQKLSA-N,1.87,10,NaN,NaN,NaN,NaN,NaN,NaN,NaN,NaN,NaN,NaN,NaN,NaN
N-Acetyl-L-alanine,HMDB00766,1.335,3,d,7.28,0.5476,-1,C[C@H](NC(C)=O)C(O)=O,InChIKey=KTHDTJVBEPMMGL-VKHMYHEASA-N,11.66,4.79,NaN,NaN,NaN,NaN,NaN,NaN,NaN,NaN,NaN,NaN,NaN,NaN
Nutriacholic acid,HMDB00467,1.335,12,m,NA,0.2504,-1,[H][C@@]12CCC([C@@H](C)CCC(O)=O)[C@@]1(C)CC[C@@]1([H])[C@@]2([H])C(=O)C[C@]2([H])C[C@H](O)CC[C@]12C,InChIKey=DXOCDBGWDZAYRQ-QPVZPPSOSA-N,3.78,-0.78,NaN,NaN,NaN,NaN,NaN,NaN,NaN,NaN,NaN,NaN,NaN,NaN
Octanol,HMDB01183,1.335,10,m,NA,0.5746,0,CCCCCCCCO,InChIKey=KBPLFHHGFOOTCA-UHFFFAOYSA-N,0.28,-3,NaN,NaN,NaN,NaN,NaN,NaN,NaN,NaN,NaN,NaN,NaN,NaN
Oenanthic ether,HMDB00798,1.335,6,m,NA,0.1636,0,CCCCCCC(=O)OCC,InChIKey=TVQGDYNRXLTQAP-UHFFFAOYSA-N,12.45,1.31,NaN,NaN,NaN,NaN,NaN,NaN,NaN,NaN,NaN,NaN,NaN,NaN
Pentacosanoic acid,HMDB02361,1.335,2,m,NA,5.00E-04,-1,CCCCCCCCCCCCCCCCCCCCCCCCC(O)=O,InChIKey=MWMPEAHGUXCSMY-UHFFFAOYSA-N,2.67,10,NaN,NaN,NaN,NaN,NaN,NaN,NaN,NaN,NaN,NaN,NaN,NaN
Linoleic acid,HMDB00673,1.336,14,m,NA,1,-1,CCCCC\C=C/C\C=C/CCCCCCCC(O)=O,InChIKey=OYHQOLUKZRVURQ-HZJYTTRNSA-N,9.99,9.23,48.2866,0.05,NaN,NaN,NaN,NaN,NaN,NaN,NaN,NaN,NaN,NaN
Biotin,HMDB00030,1.345,2,d,8.8,0.1956,-1,[H][C@]12CS[C@@H](CCCCC(O)=O)[C@@]1([H])NC(=O)N2,InChIKey=YBJHBAHKTGYVGT-ZKWXMUAHSA-N,4.36,-3,0.00127,0.036,NaN,0.071,NaN,NaN,NaN,NaN,NaN,NaN,NaN,NaN
1-Butanol,HMDB04327,1.345,2,m,NA,0.2379,0,CCCCO,InChIKey=LRHPLDYGYMQRHN-UHFFFAOYSA-N,1.86,-6.7,0.08,NaN,NaN,NaN,NaN,NaN,NaN,NaN,NaN,NaN,NaN,NaN
Hexanal,HMDB05994,1.345,4,m,NA,0.1137,0,CCCCCC=O,InChIKey=JARKCYVAAOWBJS-UHFFFAOYSA-N,1.83,-3.6,0.22,NaN,NaN,NaN,0,NaN,NaN,NaN,NaN,NaN,NaN,NaN
Cholesterol sulfate,HMDB00653,1.345,6,m,NA,0.1123,-1,[H][C@@]12CC[C@H]([C@H](C)CCCC(C)C)[C@@]1(C)CC[C@@]1([H])[C@@]2([H])CC=C2C[C@H](CC[C@]12C)OS(O)(=O)=O,InChIKey=BHYOQNUELFTYRT-DPAQBDIFSA-N,1.22,-1.3,5.4,NaN,NaN,NaN,NaN,NaN,NaN,NaN,NaN,NaN,NaN,NaN