Metabolite,HMDB Name,Shift (ppm),Hs,Type,J (Hz),Height,Physiological Charge,SMILES,InChlKey,pKa (Strongest Acidic),pKa (Strongest Basic),Blood,Urine,Feces,Saliva,Cerebrospinal Fluid (CSF),Amniotic Fluid,Aqueous Humour,Ascites Fluid,Breast Milk,Lymph,Sweat,Tears
Canrenone,HMDB03033,1.455,1,ddd,NA,0.0209,0,[H][C@@]12CC[C@@]3(CCC(=O)O3)[C@@]1(C)CC[C@@]1([H])[C@@]2([H])C=CC2=CC(=O)CC[C@]12C,InChIKey=UJVLDDZCTMKXJK-WNHSNXHDSA-N,6.68,-0.81,NA,NA,NA,NA,NA,NA,NA,NA,NA,NA,NA,NA
Uvaol,HMDB02391,1.455,7,m,NA,0.1935,0,[H][C@@]12[C@@H](C)[C@H](C)CC[C@]1(CO)CC[C@]1(C)C2=CC[C@]2([H])[C@@]3(C)CC[C@H](O)C(C)(C)[C@]3([H])CC[C@@]12C,InChIKey=XUARCIYIVXVTAE-ZAPOICBTSA-N,13.56,-6.6,NA,NA,NA,NA,NA,NA,NA,NA,NA,NA,NA,NA
(+)-Limonene,HMDB04321,1.455,1,dq,NA,0.0176,0,CC(=C)[C@@H]1CCC(C)=CC1,InChIKey=XMGQYMWWDOXHJM-JTQLQIEISA-N,1.86,-6.7,NaN,NaN,NaN,NaN,NaN,NaN,NaN,NaN,NaN,NaN,NaN,NaN
2-Methoxyestrone,HMDB00010,1.455,2,m,NA,0.045,0,[H][C@@]12CCC(=O)[C@@]1(C)CC[C@]1([H])C3=C(CC[C@@]21[H])C=C(O)C(OC)=C3,InChIKey=WHEUWNKSCXYKBU-QPWUGHHJSA-N,1.87,10,NaN,0.005,NaN,NaN,NaN,NaN,NaN,NaN,NaN,NaN,NaN,NaN
All-trans-retinoic acid,HMDB01852,1.455,1,m,NA,0.1223,-1,C\C(\C=C\C1=C(C)CCCC1(C)C)=C/C=C/C(/C)=C/C(O)=O,InChIKey=SHGAZHPCJJPHSC-YCNIQYBTSA-N,10.09,5.81,NaN,NaN,NaN,NaN,NaN,NaN,NaN,NaN,NaN,NaN,NaN,NaN
D-Lysine,HMDB03405,1.455,1,m,NA,0.1158,1,NCCCC[C@@H](N)C(O)=O,InChIKey=KDXKERNSBIXSRK-RXMQYKEDSA-N,14.58,-3,NaN,NaN,NaN,NaN,NaN,NaN,NaN,NaN,NaN,NaN,NaN,NaN
Eucalyptol,HMDB04472,1.455,1,m,NA,0.0245,0,CC12CCC(CC1)C(C)(C)O2,InChIKey=WEEGYLXZBRQIMU-UHFFFAOYSA-N,1.86,-6.7,NaN,NaN,NaN,NaN,NaN,NaN,NaN,NaN,NaN,NaN,NaN,NaN
Oleanolic acid,HMDB02364,1.455,8,m,NA,0.1298,-1,[H][C@@]12CC(C)(C)CC[C@@]1(CC[C@]1(C)C2=CC[C@]2([H])[C@@]3(C)CC[C@H](O)C(C)(C)[C@]3([H])CC[C@@]12C)C(O)=O,InChIKey=MIJYXULNPSFWEK-GTOFXWBISA-N,3.81,10,NaN,NaN,NaN,NaN,NaN,NaN,NaN,NaN,NaN,NaN,NaN,NaN
Traumatic acid,HMDB00933,1.455,2,m,NA,0.1611,-2,OC(=O)CCCCCCCC\C=C\C(O)=O,InChIKey=MAZWDMBCPDUFDJ-VQHVLOKHSA-N,7.54,-1.3,NaN,NaN,NaN,NaN,NaN,NaN,NaN,NaN,NaN,NaN,NaN,NaN
3-Hydroxysuberic acid,HMDB00325,1.456,6,m,NA,0.2854,-2,OC(CCCCC(O)=O)CC(O)=O,InChIKey=ARJZZFJXSNJKGR-UHFFFAOYSA-N,3.89,-3.4,NaN,NaN,NaN,NaN,NaN,NaN,NaN,NaN,NaN,NaN,NaN,NaN
Lathosterol,HMDB01170,1.465,3,s,NA,0.0237,0,[H][C@@]1(CC[C@@]2([H])C3=CC[C@@]4([H])C[C@@H](O)CC[C@]4(C)[C@@]3([H])CC[C@]12C)[C@H](C)CCCC(C)C,InChIKey=IZVFFXVYBHFIHY-SKCNUYALSA-N,1.57,-2.4,3.905,NaN,NaN,NaN,NaN,NaN,NaN,NaN,NaN,NaN,NaN,NaN
2.3-Dihydroxyvaleric acid,HMDB00421,1.465,2,m,NA,0.0968,-1,CCC(O)C(O)C(O)=O,InChIKey=CJXCLBPFKGZXJP-UHFFFAOYSA-N,3.28,-3,NA,NA,NA,NA,NA,NA,NA,NA,NA,NA,NA,NA
2-Methyl-3-ketovaleric acid,HMDB00408,1.465,1,m,7.03,0.1242,-1,CCC(=O)C(C)C(O)=O,InChIKey=QTLYPQZWYOHATR-UHFFFAOYSA-N,4.09,-1.4,NaN,1.1,NaN,NaN,NaN,NaN,NaN,NaN,NaN,NaN,NaN,NaN
2-Octenedioic acid,HMDB00341,1.465,1,m,NA,0.3889,-2,OC(=O)CCCC\C=C\C(O)=O,InChIKey=BNTPVRGYUHJFHN-HWKANZROSA-N,4.65,-1.3,NaN,NaN,NaN,NaN,NaN,NaN,NaN,NaN,NaN,NaN,NaN,NaN
5beta-Coprostanol,HMDB00577,1.465,5,m,NA,0.0186,0,[H][C@@]1(CC[C@@]2([H])[C@]3([H])CC[C@]4([H])C[C@@H](O)CC[C@]4(C)[C@@]3([H])CC[C@]12C)[C@H](C)CCCC(C)C,InChIKey=QYIXCDOBOSTCEI-NWKZBHTNSA-N,4.42,-7.4,NaN,NaN,NaN,NaN,NaN,NaN,NaN,NaN,NaN,NaN,NaN,NaN
Deoxycholic acid glycine conjugate,HMDB00631,1.465,10,m,NA,0.1827,-1,[H][C@]12CCC3C4CC[C@H]([C@H](C)CCC(=O)NCC(O)=O)[C@@]4(C)[C@@H](O)CC3[C@@]1(C)CC[C@@H](O)C2,InChIKey=WVULKSPCQVQLCU-ZMBDPXIHSA-N,1.86,-6.7,NaN,NaN,NaN,NaN,NaN,NaN,NaN,NaN,NaN,NaN,NaN,NaN
Deoxycorticosterone,HMDB00016,1.465,1,dd,12.63 3.43,0.053,0,[H][C@@]12CC[C@H](C(=O)CO)[C@@]1(C)CC[C@@]1([H])[C@@]2([H])CCC2=CC(=O)CC[C@]12C,InChIKey=ZESRJSPZRDMNHY-YFWFAHHUSA-N,-1.9,-2.7,NaN,NaN,NaN,NaN,NaN,NaN,NaN,NaN,NaN,NaN,NaN,NaN
Diaminopimelic acid,HMDB01370,1.465,2,m,NA,0.1181,0,N[C@@H](CCC[C@H](N)C(O)=O)C(O)=O,InChIKey=GMKMEZVLHJARHF-WHFBIAKZSA-N,2.01,4.95,NaN,NaN,NaN,NaN,NaN,NaN,NaN,NaN,NaN,NaN,NaN,NaN
Epietiocholanolone,HMDB00546,1.465,1,dd,14.31 4.11,0.1315,0,[H][C@@]12CCC(=O)[C@@]1(C)CC[C@@]1([H])[C@@]2([H])CC[C@]2([H])C[C@@H](O)CC[C@]12C,InChIKey=QGXBDMJGAMFCBF-XRJZGPCZSA-N,4.14,-2.8,NaN,NaN,NaN,NaN,NaN,NaN,NaN,NaN,NaN,NaN,NaN,NaN
L-Isoleucine,HMDB00172,1.472,1,m,NA,NA,0,CC[C@H](C)[C@H](N)C(O)=O,InChIKey=AGPKZVBTJJNPAG-WHFBIAKZSA-N,1.7,9.29,61.35,1.787933333,NaN,NA,7.134,NaN,NaN,NaN,NaN,NaN,NaN,NaN
Androstenedione,HMDB00053,1.475,4,tt,13.23 13.07 4.14,0.0524,0,[H][C@@]12CCC(=O)[C@@]1(C)CC[C@@]1([H])[C@@]2([H])CCC2=CC(=O)CC[C@]12C,InChIKey=AEMFNILZOJDQLW-QAGGRKNESA-N,18.2,-7.4,0.0059,0.0068,NaN,NaN,NaN,NaN,NaN,NaN,NaN,NaN,NaN,NaN
Spermidine,HMDB01257,1.475,3,m,NA,0.514,3,NCCCCNCCCN,InChIKey=ATHGHQPFGPMSJY-UHFFFAOYSA-N,12.94,-1.4,0.07,0.392,NaN,1.63,0.12,NaN,NaN,NaN,NaN,NaN,NaN,NaN
3-Methyl-2-oxovaleric acid,HMDB00491,1.475,1,m,NA,0.1345,-1,CCC(C)C(=O)C(O)=O,InChIKey=JVQYSWDUAOAHFM-UHFFFAOYSA-N,1.86,-6.7,20.35,0.3,NaN,NaN,2,NaN,NaN,NaN,NaN,NaN,NaN,NaN
L-Lysine,HMDB00182,1.475,17,m,NA,0.1472,1,NCCCC[C@H](N)C(O)=O,InChIKey=KDXKERNSBIXSRK-YFKPBYRVSA-N,0.3,-3.7,266.8666667,7.325,NaN,NA,22.8,NaN,NaN,NaN,NaN,NaN,NaN,NaN
3a.6a.7b-Trihydroxy-5b-cholanoic acid,HMDB00364,1.475,2,m,NA,0.1282,-1,[H][C@@]12CC[C@H]([C@H](C)CCC(O)=O)[C@@]1(C)CC[C@@]1([H])[C@@]2([H])[C@@H](O)[C@H](O)[C@]2([H])C[C@H](O)CC[C@]12C,InChIKey=DKPMWHFRUGMUKF-NTPBNISXSA-N,1.08,-3.4,NA,NA,NA,NA,NA,NA,NA,NA,NA,NA,NA,NA
3a.6b.7b-Trihydroxy-5b-cholanoic acid,HMDB00415,1.475,2,m,NA,0.1762,-1,[H][C@@]12CC[C@H]([C@H](C)CCC(O)=O)[C@@]1(C)CC[C@@]1([H])[C@@]2([H])[C@@H](O)[C@@H](O)[C@]2([H])C[C@H](O)CC[C@]12C,InChIKey=DKPMWHFRUGMUKF-CRKPLTDNSA-N,3.85,-3,NA,NA,NA,NA,NA,NA,NA,NA,NA,NA,NA,NA
13-cis-Retinoic acid,HMDB06219,1.475,2,m,NA,0.0417,-1,C\C(\C=C\C1=C(C)CCCC1(C)C)=C/C=C/C(/C)=C\C(O)=O,InChIKey=SHGAZHPCJJPHSC-XFYACQKRSA-N,0.38,-3.7,NaN,NaN,NaN,NaN,NaN,NaN,NaN,NaN,NaN,NaN,NaN,NaN
3b-Hydroxy-5-cholenoic acid,HMDB00308,1.475,19,m,NA,0.1866,-1,[H][C@@]12CC[C@H]([C@H](C)CCC(O)=O)[C@@]1(C)CC[C@@]1([H])[C@@]2([H])CC=C2C[C@@H](O)CC[C@]12C,InChIKey=HIAJCGFYHIANNA-QIZZZRFXSA-N,10.29,-3,NaN,NaN,NaN,NaN,NaN,NaN,NaN,NaN,NaN,NaN,NaN,NaN
3-Hydroxydodecanedioic acid,HMDB00413,1.475,2,m,NA,0.1203,-2,OC(CCCCCCCCC(O)=O)CC(O)=O,InChIKey=FYVQCLGZFXHEGL-UHFFFAOYSA-N,18.3,9.59,NaN,NaN,NaN,NaN,NaN,NaN,NaN,NaN,NaN,NaN,NaN,NaN
Venlafaxine,HMDB05016,1.475,3,m,NA,0.0233,1,COC1=CC=C(C=C1)C(CN(C)C)C1(O)CCCCC1,InChIKey=PNVNVHUZROJLTJ-UHFFFAOYSA-N,1.87,10,NaN,NaN,NaN,NaN,NaN,NaN,NaN,NaN,NaN,NaN,NaN,NaN
Progesterone,HMDB01830,1.485,2,m,NA,0.1737,0,[H][C@@]12CC[C@H](C(C)=O)[C@@]1(C)CC[C@@]1([H])[C@@]2([H])CCC2=CC(=O)CC[C@]12C,InChIKey=RJKFOVLPORLFTN-LEKSSAKUSA-N,11.17,-6.2,0.0025,NaN,NaN,NaN,NaN,NaN,NaN,NaN,NaN,NaN,NaN,NaN
3-Hydroxydodecanoic acid,HMDB00387,1.485,1,m,NA,0.0927,-1,CCCCCCCCCC(O)CC(O)=O,InChIKey=MUCMKTPAZLSKTL-UHFFFAOYSA-N,18.3,-0.13,0.3,NaN,NaN,NaN,NaN,NaN,NaN,NaN,NaN,NaN,NaN,NaN
L-Alanine,HMDB00161,1.485,5,d,7.28,1,0,C[C@H](N)C(O)=O,InChIKey=QNAYBMKLOCPYGJ-REOHCLBHSA-N,15.5,-3,448.4,25.86,NaN,NA,25.1075,NaN,NaN,NaN,NaN,NaN,NaN,NaN
D-Alanine,HMDB01310,1.485,3,d,7.26,1,0,C[C@@H](N)C(O)=O,InChIKey=QNAYBMKLOCPYGJ-UWTATZPHSA-N,4.21,-1.2,NaN,NaN,NaN,NaN,NaN,NaN,NaN,NaN,NaN,NaN,NaN,NaN
Gabapentin,HMDB05015,1.485,6,m,NA,0.6403,0,NCC1(CC(O)=O)CCCCC1,InChIKey=UGJMXCAKCUNAIE-UHFFFAOYSA-N,1.87,10,NaN,NaN,NaN,NaN,NaN,NaN,NaN,NaN,NaN,NaN,NaN,NaN
Stigmasterol,HMDB00937,1.485,5,m,NA,0.3141,0,CC[C@H](\C=C\[C@@H](C)[C@@]1([H])CC[C@@]2([H])[C@]3([H])CC=C4C[C@@H](O)CC[C@]4(C)[C@@]3([H])CC[C@]12C)C(C)C,InChIKey=HCXVJBMSMIARIN-PHZDYDNGSA-N,16.3,5.29,NaN,NaN,NaN,NaN,NaN,NaN,NaN,NaN,NaN,NaN,NaN,NaN
Pregnenolone sulfate,HMDB00774,1.495,8,m,NA,0.0187,-1,[H][C@@]12CC[C@H](C(C)=O)[C@@]1(C)CC[C@@]1([H])[C@@]2([H])CC=C2CC(CC[C@]12C)OS(O)(=O)=O,InChIKey=DIJBBUIOWGGQOP-OZIWPBGVSA-N,-0.99,5.01,0.13,NaN,NaN,NaN,NaN,NaN,NaN,NaN,NaN,NaN,NaN,NaN
Octadecanedioic acid,HMDB00782,1.495,4,m,NA,0.0826,-2,OC(=O)CCCCCCCCCCCCCCCCC(O)=O,InChIKey=BNJOQKFENDDGSC-UHFFFAOYSA-N,1.97,-1.4,NA,NA,NA,NA,NA,NA,NA,NA,NA,NA,NA,NA
17a-Estradiol,HMDB00429,1.495,1,m,NA,0.0388,0,[H][C@@]12CC[C@@H](O)[C@@]1(C)CC[C@]1([H])C3=C(CC[C@@]21[H])C=C(O)C=C3,InChIKey=VOXZDWNPVJITMN-SFFUCWETSA-N,1.22,-6.1,NaN,2.3,NaN,NaN,NaN,NaN,NaN,NaN,NaN,NaN,NaN,NaN
2-Aminoisobutyric acid,HMDB01906,1.495,6,s,NA,1,0,CC(C)(N)C(O)=O,InChIKey=FUOOLUPWFVMBKG-UHFFFAOYSA-N,11.62,-0.87,NaN,NaN,NaN,NaN,NaN,NaN,NaN,NaN,NaN,NaN,NaN,NaN
2-Hydroxy-2-methylbutyric acid,HMDB01987,1.495,1,s,NA,0.7364,-1,CCC(C)(O)C(O)=O,InChIKey=MBIQENSCDNJOIY-UHFFFAOYSA-N,6.92,-2.2,NaN,NaN,NaN,NaN,NaN,NaN,NaN,NaN,NaN,NaN,NaN,NaN
2-Methylbutyrylglycine,HMDB00339,1.495,7,m,NA,0.1437,-1,CCC(C)C(=O)NCC(O)=O,InChIKey=HOACIBQKYRHBOW-UHFFFAOYSA-N,1.86,-0.58,NaN,2,NaN,NaN,NaN,NaN,NaN,NaN,NaN,NaN,NaN,NaN
Alpha-Terpineol,HMDB04043,1.495,1,ddd,NA,0.1058,0,CC1=CC[C@@H](CC1)C(C)(C)O,InChIKey=WUOACPNHFRMFPN-VIFPVBQESA-N,1.86,-6.7,NaN,NaN,NaN,NaN,NaN,NaN,NaN,NaN,NaN,NaN,NaN,NaN
Nutriacholic acid,HMDB00467,1.495,10,m,NA,0.1678,-1,[H][C@@]12CCC([C@@H](C)CCC(O)=O)[C@@]1(C)CC[C@@]1([H])[C@@]2([H])C(=O)C[C@]2([H])C[C@H](O)CC[C@]12C,InChIKey=DXOCDBGWDZAYRQ-QPVZPPSOSA-N,3.78,-0.78,NaN,NaN,NaN,NaN,NaN,NaN,NaN,NaN,NaN,NaN,NaN,NaN
Perillyl alcohol,HMDB03634,1.495,1,m,NA,0.0554,0,CC(=C)C1CCC(CO)=CC1,InChIKey=NDTYTMIUWGWIMO-UHFFFAOYSA-N,14.58,-3,NaN,NaN,NaN,NaN,NaN,NaN,NaN,NaN,NaN,NaN,NaN,NaN
Retinal,HMDB01358,1.495,2,m,NA,0.0612,0,C\C(\C=C\C=C(/C)\C=C\C1=C(C)CCCC1(C)C)=C/C=O,InChIKey=NCYCYZXNIZJOKI-OVSJKPMPSA-N,1.48,10.78,NaN,NaN,NaN,NaN,NaN,NaN,NaN,NaN,NaN,NaN,NaN,NaN
Saccharopine,HMDB00279,1.495,2,m,NA,0.0769,-1,N[C@@H](CCCCN[C@@H](CCC(O)=O)C(O)=O)C(O)=O,InChIKey=ZDGJAHTZVHVLOT-YUMQZZPRSA-N,4.48,-2.8,NaN,NaN,NaN,NaN,NaN,NaN,NaN,NaN,NaN,NaN,NaN,NaN
11a-Hydroxyprogesterone,HMDB00920,1.505,1,m,NA,0.0497,0,[H][C@@]12CCC(C(C)=O)[C@@]1(C)C[C@@H](O)[C@@]1([H])[C@@]2([H])CCC2=CC(=O)CC[C@]12C,InChIKey=BFZHCUBIASXHPK-ODYOLWGQSA-N,16.38,10.67,NA,NA,NA,NA,NA,NA,NA,NA,NA,NA,NA,NA
Azythromycin,HMDB01916,1.505,2,m,NA,0.0232,2,CC[C@@H]1OC(=O)[C@H](C)[C@@H](O[C@@H]2C[C@](C)(OC)[C@H](O)[C@@H](C)O2)[C@@H](C)[C@H](O[C@H]2O[C@@H](C)C[C@H]([C@@H]2O)N(C)C)[C@@](C)(O)C[C@H](C)CN(C)[C@@H](C)[C@@H](O)[C@]1(C)O,InChIKey=MQTOSJVFKKJCRP-HHZDEWPHSA-N,3.84,1.99,NA,NA,NA,NA,NA,NA,NA,NA,NA,NA,NA,NA
Hydroxycobalamin,HMDB02308,1.505,3,s,NA,0.0211,2,[Co++].O.OC[C@H]1O[C@@]([H])([C@H](O)[C@]1([H])OP(=O)([O-])O[C@H](C)CNC(=O)CC[C@]1(C)[C@@H](CC(=O)N)[C@@]2([H])[N-]\C1=C(C)/C1=N/C(=C\C3=N\C(=C(C)/C4=N[C@]2(C)[C@@](C)(CC(=O)N)[C@@H]4CCC(=O)N)\[C@@](C)(CC(=O)N)[C@@H]3CCC(=O)N)/C(C)(C)[C@@H]1CCC(=O)N)N1C=NC2=C1C=C(C)C(C)=C2,InChIKey=DQOCFCZRZOAIBN-WZHZPDAFSA-L,2.45,-1.9,NA,NA,NA,NA,NA,NA,NA,NA,NA,NA,NA,NA
TG(16:0/16:0/16:0)[iso],HMDB05356,1.505,72,m,NA,NA,0,CCCCCCCCCCCCCCCC(=O)OCC(COC(=O)CCCCCCCCCCCCCCC)OC(=O)CCCCCCCCCCCCCCC,InChIKey=PVNIQBQSYATKKL-UHFFFAOYSA-N,1.87,10,NA,NA,NA,NA,NA,NA,NA,NA,NA,NA,NA,NA
Cadaverine,HMDB02322,1.505,4,quin,7.46,0.5285,2,NCCCCCN,InChIKey=VHRGRCVQAFMJIZ-UHFFFAOYSA-N,2.8,-7,NaN,0.229,NaN,NaN,NaN,NaN,NaN,NaN,NaN,NaN,NaN,NaN
Chenodeoxycholic acid,HMDB00518,1.506,19,m,NA,0.1559,-1,[H][C@@]1(CC[C@@]2([H])[C@]3([H])[C@H](O)C[C@]4([H])C[C@H](O)CC[C@]4(C)[C@@]3([H])CC[C@]12C)[C@H](C)CCC(O)=O,InChIKey=RUDATBOHQWOJDD-BSWAIDMHSA-N,2.15,-4.1,1.165,NaN,NaN,NaN,NaN,NaN,NaN,NaN,NaN,NaN,NaN,NaN
Vitamin D3,HMDB00876,1.515,4,m,NA,0.0381,0,CC(C)CCC[C@@H](C)[C@H]1CCC2\C(CCC[C@]12C)=C\C=C1\C[C@@H](O)CCC1=C,InChIKey=QYSXJUFSXHHAJI-QWSSABAFSA-N,1.1,-3.6,0.03705,NaN,NaN,0.006,NaN,NaN,NaN,NaN,NaN,NaN,NaN,NaN
Prostaglandin E2,HMDB01220,1.515,2,m,NA,0.0262,-1,CCCCC[C@H](O)\C=C\[C@H]1[C@H](O)CC(=O)[C@@H]1C\C=C/CCCC(O)=O,InChIKey=XEYBRNLFEZDVAW-ARSRFYASSA-N,3.84,-3.2,3.7,NaN,NaN,NaN,NA,NaN,NaN,NaN,NaN,NaN,NaN,NaN
Cholesterol sulfate,HMDB00653,1.515,4,m,NA,0.1335,-1,[H][C@@]12CC[C@H]([C@H](C)CCCC(C)C)[C@@]1(C)CC[C@@]1([H])[C@@]2([H])CC=C2C[C@H](CC[C@]12C)OS(O)(=O)=O,InChIKey=BHYOQNUELFTYRT-DPAQBDIFSA-N,1.22,-1.3,5.4,NaN,NaN,NaN,NaN,NaN,NaN,NaN,NaN,NaN,NaN,NaN
1-Hexadecanol,HMDB03424,1.515,2,quin,NA,0.0381,0,CCCCCCCCCCCCCCCCO,InChIKey=BXWNKGSJHAJOGX-UHFFFAOYSA-N,14.58,-3,NaN,NaN,NaN,NaN,NaN,NaN,NaN,NaN,NaN,NaN,NaN,NaN
2-Methylbutyroylcarnitine,HMDB00378,1.515,1,dq,14.31 7.13,0.0306,0,CCC(C)C(=O)OC(CC([O-])=O)C[N+](C)(C)C,InChIKey=IHCPDBBYTYJYIL-UHFFFAOYSA-N,1.86,-1.3,NaN,NaN,NaN,NaN,NaN,NaN,NaN,NaN,NaN,NaN,NaN,NaN
Epiandrosterone,HMDB00365,1.515,2,m,NA,0.0902,0,[H][C@@]12CCC(=O)[C@@]1(C)CC[C@@]1([H])[C@@]2([H])CCC2C[C@@H](O)CC[C@]12C,InChIKey=QGXBDMJGAMFCBF-QRIARFFBSA-N,9.61,-3,NaN,NaN,NaN,NaN,NaN,NaN,NaN,NaN,NaN,NaN,NaN,NaN
Sulfolithocholic acid,HMDB00907,1.515,2,m,NA,0.0395,-2,[H][C@@]12CC[C@H]([C@H](C)CCC(O)=O)[C@@]1(C)CC[C@@]1([H])[C@@]2([H])CCC2C[C@@H](CC[C@]12C)OS(O)(=O)=O,InChIKey=AXDXVEYHEODSPN-YPLGJCPNSA-N,0.45,9.33,NaN,NaN,NaN,NaN,NaN,NaN,NaN,NaN,NaN,NaN,NaN,NaN
Biotin,HMDB00030,1.525,3,m,NA,0.2447,-1,[H][C@]12CS[C@@H](CCCCC(O)=O)[C@@]1([H])NC(=O)N2,InChIKey=YBJHBAHKTGYVGT-ZKWXMUAHSA-N,4.36,-3,0.00127,0.036,NaN,0.071,NaN,NaN,NaN,NaN,NaN,NaN,NaN,NaN
1-Butanol,HMDB04327,1.525,2,m,NA,0.2487,0,CCCCO,InChIKey=LRHPLDYGYMQRHN-UHFFFAOYSA-N,1.86,-6.7,0.08,NaN,NaN,NaN,NaN,NaN,NaN,NaN,NaN,NaN,NaN,NaN
Ibuprofen,HMDB01925,1.525,3,d,7.16,0.4708,-1,CC(C)CC1=CC=C(C=C1)C(C)C(O)=O,InChIKey=HEFNNWSXXWATRW-UHFFFAOYSA-N,12.2,3.34,242,NaN,NaN,NaN,NaN,NaN,NaN,NaN,NaN,NaN,NaN,NaN
2-Hydroxyestrone,HMDB00343,1.525,1,m,NA,0.0457,0,[H][C@@]12CCC(=O)[C@@]1(C)CC[C@]1([H])C3=C(CC[C@@]21[H])C=C(O)C(O)=C3,InChIKey=SWINWPBPEKHUOD-JPVZDGGYSA-N,4,-2.8,NaN,NaN,NaN,NaN,NaN,NaN,NaN,NaN,NaN,NaN,NaN,NaN
2-Oxohexane,HMDB05842,1.525,2,m,NA,0.2099,0,CCCCC(C)=O,InChIKey=QQZOPKMRPOGIEB-UHFFFAOYSA-N,1.87,10,NaN,NaN,NaN,NaN,NaN,NaN,NaN,NaN,NaN,NaN,NaN,NaN
3-Hydroxysebacic acid,HMDB00350,1.525,3,m,NA,0.0222,-2,OC(CCCCCCC(O)=O)CC(O)=O,InChIKey=OQYZCCKCJQWHIE-UHFFFAOYSA-N,19.09,-4.9,NaN,NaN,NaN,NaN,NaN,NaN,NaN,NaN,NaN,NaN,NaN,NaN
3-Methyladipic acid,HMDB00555,1.525,1,ddd,14.37 8.05,0.1674,-2,C[C@@H](CCC(O)=O)CC(O)=O,InChIKey=SYEOWUNSTUDKGM-YFKPBYRVSA-N,1.19,-3.8,NaN,6.05,NaN,NaN,NaN,NaN,NaN,NaN,NaN,NaN,NaN,NaN
Epitestosterone,HMDB00628,1.525,6,m,NA,0.0656,0,[H][C@@]12CC[C@@H](O)[C@@]1(C)CC[C@@]1([H])[C@@]2([H])CCC2=CC(=O)CC[C@]12C,InChIKey=MUMGGOZAMZWBJJ-KZYORJDKSA-N,3.89,4.89,NaN,NaN,NaN,NaN,NaN,NaN,NaN,NaN,NaN,NaN,NaN,NaN
Glycyrrhetinic acid,HMDB11628,1.525,2,m,NA,0.0943,-1,CC1(C)[C@@H](O)CC[C@@]2(C)C1CC[C@]1(C)C2C(=O)C=C2C3C[C@](C)(CC[C@]3(C)CC[C@@]12C)C(O)=O,InChIKey=MPDGHEJMBKOTSU-WFJWTYAKSA-N,1.86,-3,NaN,NaN,NaN,NaN,NaN,NaN,NaN,NaN,NaN,NaN,NaN,NaN
Prostaglandin D2,HMDB01403,1.535,2,m,NA,0.017,-1,CCCCC[C@H](O)\C=C\[C@@H]1[C@@H](C\C=C/CCCC(O)=O)[C@@H](O)CC1=O,InChIKey=BHMBVRSPMRCCGG-OUTUXVNYSA-N,3.65,5.53,2.00E-04,NaN,NaN,NaN,NaN,NaN,NaN,NaN,NaN,NaN,NaN,NaN
Dehydroepiandrosterone,HMDB00077,1.535,4,m,NA,0.1593,0,C[C@]12CCC3C(CC=C4C[C@@H](O)CC[C@]34C)C1CCC2=O,InChIKey=FMGSKLZLMKYGDP-INNQQZFDSA-N,1.49,9.22,0.023,0.0658,NaN,0.0033,NaN,NaN,NaN,NaN,NaN,NaN,NaN,NaN
Lithocholic acid,HMDB00761,1.535,3,m,NA,0.0327,-1,[H][C@@]12CC[C@H]([C@H](C)CCC(O)=O)[C@@]1(C)CC[C@@]1([H])[C@@]2([H])CCC2C[C@H](O)CC[C@]12C,InChIKey=SMEROWZSTRWXGI-YPLGJCPNSA-N,1.77,-1.8,0.33,NaN,NaN,NaN,NaN,NaN,NaN,NaN,NaN,NaN,NaN,NaN
5alpha-Cholestanol,HMDB00908,1.535,5,m,NA,0.6668,0,[H][C@@]1(CC[C@@]2([H])[C@]3([H])CC[C@@]4([H])C[C@@H](O)CC[C@]4(C)[C@@]3([H])CC[C@]12C)[C@H](C)CCCC(C)C,InChIKey=QYIXCDOBOSTCEI-QCYZZNICSA-N,4.05,-3,9.26,NaN,NaN,NaN,NaN,NaN,NaN,NaN,NaN,NaN,NaN,NaN
Cholesterol,HMDB00067,1.535,19,m,NA,0.4892,0,[H][C@@]12CC[C@H]([C@H](C)CCCC(C)C)[C@@]1(C)CC[C@@]1([H])[C@@]2([H])CC=C2CC(O)CC[C@]12C,InChIKey=HVYWMOMLDIMFJA-FNOPAARDSA-N,3.17,-0.54,3567.92,NaN,NaN,NA,6.31,NaN,NaN,NaN,NaN,NaN,NaN,NaN
16-a-Hydroxypregnenolone,HMDB00315,1.535,3,m,NA,0.0296,0,[H][C@@]12C[C@@H](O)[C@H](C(C)=O)[C@@]1(C)CC[C@@]1([H])[C@@]2([H])CC=C2C[C@@H](O)CC[C@]12C,InChIKey=ZAKJZPQDUPCXSD-YRWKUUEZSA-N,18.3,-0.16,NaN,NaN,NaN,NaN,NaN,NaN,NaN,NaN,NaN,NaN,NaN,NaN
17a-Hydroxypregnenolone,HMDB00363,1.535,3,m,NA,0.0433,0,[H][C@@]12CC[C@](O)(C(C)=O)[C@@]1(C)CC[C@@]1([H])[C@@]2([H])CC=C2C[C@@H](O)CC[C@]12C,InChIKey=JERGUCIJOXJXHF-TVWVXWENSA-N,4.56,-0.76,NaN,NaN,NaN,NaN,NaN,NaN,NaN,NaN,NaN,NaN,NaN,NaN
Hydroxyisocaproic acid,HMDB00746,1.535,15,m,NA,0.2303,-1,CC(C)C[C@H](O)C(O)=O,InChIKey=LVRFTAZAXQPQHI-YFKPBYRVSA-N,18.3,4.69,NaN,NaN,NaN,6.17,NaN,NaN,NaN,NaN,NaN,NaN,NaN,NaN
Naproxen,HMDB01923,1.535,3,d,7.15,0.2538,-1,COC1=CC2=C(C=C1)C=C(C=C2)[C@H](C)C(O)=O,InChIKey=CMWTZPSULFXXJA-VIFPVBQESA-N,0.87,-0.34,NaN,NaN,NaN,NaN,NaN,NaN,NaN,NaN,NaN,NaN,NaN,NaN
Octanol,HMDB01183,1.535,2,m,NA,0.2323,0,CCCCCCCCO,InChIKey=KBPLFHHGFOOTCA-UHFFFAOYSA-N,0.28,-3,NaN,NaN,NaN,NaN,NaN,NaN,NaN,NaN,NaN,NaN,NaN,NaN
Tridecanoic acid,HMDB00910,1.544,2,t,7.6,0.0037,-1,CCCCCCCCCCCCC(O)=O,InChIKey=SZHOJFHSIKHZHA-UHFFFAOYSA-N,0.99,-3.5,NaN,NaN,NaN,NaN,NaN,NaN,NaN,NaN,NaN,NaN,NaN,NaN
Sphinganine,HMDB00269,1.545,2,m,NA,0.0147,1,CCCCCCCCCCCCCCC[C@@H](O)[C@@H](N)CO,InChIKey=OTKJDMGTUTTYMP-ZWKOTPCHSA-N,18.3,-2.4,0.011,0.00023,NaN,NaN,NaN,NaN,NaN,NaN,NaN,NaN,NaN,NaN
Spermine,HMDB01256,1.545,5,br. s.,NA,0.5731,4,NCCCNCCCCNCCCN,InChIKey=PFNFFQXMRSDOHW-UHFFFAOYSA-N,4.81,-2.2,0.03,0.076333333,NaN,0.335,0.14,NaN,NaN,NaN,NaN,NaN,NaN,NaN
Valeric acid,HMDB00892,1.545,14,m,NA,0.0801,-1,CCCCC(O)=O,InChIKey=NQPDZGIKBAWPEJ-UHFFFAOYSA-N,1.22,-0.53,0.6,NaN,NaN,NA,NaN,NaN,NaN,NaN,NaN,NaN,NaN,NaN
Caprylic acid,HMDB00482,1.545,4,m,NA,0.2781,-1,CCCCCCCC(O)=O,InChIKey=WWZKQHOCKIZLMA-UHFFFAOYSA-N,11.61,9.19,5.25,NaN,NaN,NaN,NaN,NaN,NaN,NaN,NaN,NaN,NaN,NaN
Capric acid,HMDB00511,1.545,2,br. s.,NA,0.1438,-1,CCCCCCCCCC(O)=O,InChIKey=GHVNFZFCNZKVNT-UHFFFAOYSA-N,2.5,-9.7,11,NaN,NaN,NaN,NaN,NaN,NaN,NaN,NaN,NaN,NaN,NaN
Alpha-Tocopherol,HMDB01893,1.545,2,m,NA,0.1279,0,CC(C)CCC[C@@H](C)CCC[C@@H](C)CCC[C@]1(C)CCC2=C(O1)C(C)=C(C)C(O)=C2C,InChIKey=GVJHHUAWPYXKBD-IEOSBIPESA-N,10.07,-4.2,30.94,NaN,NaN,0.082,NaN,NaN,NaN,NaN,NaN,NaN,NaN,NaN
SM(d18:1/18:0),HMDB01348,1.545,2,m,NA,0.0117,0,CCCCCCCCCCCCCCCCCC(=O)N[C@@]([H])(COP(O)(=O)OCC[N+](C)(C)C)[C@]([H])(O)\C=C\CCCCCCCCCCCCC,InChIKey=LKQLRGMMMAHREN-YJFXYUILSA-O,1.86,-6.7,157.1,NaN,NaN,0.121,NaN,NaN,NaN,NaN,NaN,NaN,NaN,NaN
CE(16:0),HMDB00885,1.545,9,m,NA,0.0531,0,[H][C@@]1(CC[C@@]2([H])[C@]3([H])CC=C4C[C@H](CC[C@]4(C)[C@@]3([H])CC[C@]12C)OC(=O)CCCCCCCCCCCCCCC)[C@H](C)CCCC(C)C,InChIKey=BBJQPKLGPMQWBU-JADYGXMDSA-N,1.87,10,297.73,NaN,NaN,NaN,NaN,NaN,NaN,NaN,NaN,NaN,NaN,NaN
Undecanoic acid,HMDB00947,1.545,2,t,7.08,0.1169,-1,CCCCCCCCCCC(O)=O,InChIKey=ZDPHROOEEOARMN-UHFFFAOYSA-N,1.8,4.79,NA,NA,NA,NA,NA,NA,NA,NA,NA,NA,NA,NA
2-Heptanone,HMDB03671,1.545,2,quin,NA,0.2033,0,CCCCCC(C)=O,InChIKey=CATSNJVOTSVZJV-UHFFFAOYSA-N,14.58,-3,NaN,NaN,NaN,NaN,0,NaN,NaN,NaN,NaN,NaN,NaN,NaN
CE(18:2(9Z.12Z)),HMDB00610,1.545,10,m,NA,0.1672,0,CCCCC\C=C/C\C=C/CCCCCCCC(=O)O[C@H]1CC[C@@]2(C)C(=CC[C@@]3([H])[C@]4([H])CC[C@]([H])([C@H](C)CCCC(C)C)[C@@]4(C)CC[C@]23[H])C1,InChIKey=NAACPBBQTFFYQB-LJAITQKLSA-N,1.87,10,NaN,NaN,NaN,NaN,NaN,NaN,NaN,NaN,NaN,NaN,NaN,NaN
Ethylmethylacetic acid,HMDB02176,1.545,1,m,NA,0.1586,-1,CCC(C)C(O)=O,InChIKey=WLAMNBDJUVNPJU-UHFFFAOYSA-N,4.82,-3.7,NaN,NaN,NaN,8.04,NaN,NaN,NaN,NaN,NaN,NaN,NaN,NaN
Heptanoic acid,HMDB00666,1.545,2,t,7.13,0.2302,-1,CCCCCCC(O)=O,InChIKey=MNWFXJYAOYHMED-UHFFFAOYSA-N,4.79,2.07,NaN,NaN,NaN,NaN,NaN,NaN,NaN,NaN,NaN,NaN,NaN,NaN
Pelargonic acid,HMDB00847,1.545,1,t,7.27,0.1382,-1,CCCCCCCCC(O)=O,InChIKey=FBUKVWPVBMHYJY-UHFFFAOYSA-N,3.16,5,NaN,NaN,NaN,NaN,NaN,NaN,NaN,NaN,NaN,NaN,NaN,NaN
Tetradecanedioic acid,HMDB00872,1.545,4,m,NA,0.1424,-2,OC(=O)CCCCCCCCCCCCC(O)=O,InChIKey=HQHCYKULIHKCEB-UHFFFAOYSA-N,13.55,4.95,NaN,NaN,NaN,NaN,NaN,NaN,NaN,NaN,NaN,NaN,NaN,NaN
Undecanedioic acid,HMDB00888,1.545,4,t,7.09,0.1388,-2,OC(=O)CCCCCCCCCC(O)=O,InChIKey=LWBHHRRTOZQPDM-UHFFFAOYSA-N,1.77,-9.8,NaN,NaN,NaN,NaN,NaN,NaN,NaN,NaN,NaN,NaN,NaN,NaN
Adipic acid,HMDB00448,1.555,4,m,NA,1,-2,OC(=O)CCCCC(O)=O,InChIKey=WNLRTRBMVRJNCN-UHFFFAOYSA-N,1.86,-6.7,0.09,1.9,NaN,NaN,NaN,NaN,NaN,NaN,NaN,NaN,NaN,NaN
Propyl alcohol,HMDB00820,1.555,1,m,NA,0.3931,0,CCCO,InChIKey=BDERNNFJNOPAEC-UHFFFAOYSA-N,3.93,4.94,0.33,NaN,NaN,NaN,NaN,NaN,NaN,NaN,NaN,NaN,NaN,NaN
Suberic acid,HMDB00893,1.555,4,t,7.14,0.3798,-2,OC(=O)CCCCCCC(O)=O,InChIKey=TYFQFVWCELRYAO-UHFFFAOYSA-N,1.78,4.95,3.6,0.25,NaN,NaN,NaN,NaN,NaN,NaN,NaN,NaN,NaN,NaN