Metabolite,HMDB Name,Shift (ppm),Hs,Type,J (Hz),Height,Physiological Charge,SMILES,InChlKey,pKa (Strongest Acidic),pKa (Strongest Basic),Blood,Urine,Feces,Saliva,Cerebrospinal Fluid (CSF),Amniotic Fluid,Aqueous Humour,Ascites Fluid,Breast Milk,Lymph,Sweat,Tears
Isomaltose,HMDB02923,3.965,2,dd,11.28 4.68,0.3524,0,OC[C@H]1O[C@H](OC[C@H]2OC(O)[C@H](O)[C@@H](O)[C@@H]2O)[C@H](O)[C@@H](O)[C@@H]1O,InChIKey=DLRVVLDZNNYCBX-RTPHMHGBSA-N,9.91,-1.4,NaN,NaN,NaN,NaN,NaN,NaN,NaN,NaN,NaN,NaN,NaN,NaN
Raffinose,HMDB03213,3.965,1,t,6.22,0.3009,0,OC[C@H]1O[C@@](CO)(OC2O[C@H](COC3O[C@H](CO)[C@H](O)[C@H](O)[C@H]3O)[C@@H](O)[C@H](O)[C@H]2O)[C@@H](O)[C@@H]1O,InChIKey=MUPFEKGTMRGPLJ-BQCSWRFHSA-N,14.58,-3,NaN,NaN,NaN,NaN,NaN,NaN,NaN,NaN,NaN,NaN,NaN,NaN
L-Serine,HMDB00187,3.973,61,m,NA,NA,0,N[C@@H](CO)C(O)=O,InChIKey=MTCFGRXMJLQNBG-REOHCLBHSA-N,1.64,9.25,170.75,28.024,NaN,40.8,25.75,NaN,NaN,NaN,NaN,NaN,NaN,NaN
Riboflavin,HMDB00244,3.975,1,ddd,6.92 2.81,0.1276,-1,CC1=C(C)C=C2N(C[C@H](O)[C@H](O)[C@H](O)CO)C3=NC(=O)NC(=O)C3=NC2=C1,InChIKey=AUNGANRZJHBGPY-SCRDCRAPSA-N,4.17,-3,0.015,0.18,NaN,0.058,NaN,NaN,NaN,NaN,NaN,NaN,NaN,NaN
Sphingosine,HMDB00252,3.975,1,t,NA,0.0539,1,CCCCCCCCCCCCC\C=C\C(O)C(N)CO,InChIKey=WWUZIQQURGPMPG-CCEZHUSRSA-N,10.33,-2.7,0.05,3.85E-05,NaN,NaN,NaN,NaN,NaN,NaN,NaN,NaN,NaN,NaN
Hippuric acid,HMDB00714,3.975,2,d,5.84,1,-1,OC(=O)CNC(=O)C1=CC=CC=C1,InChIKey=QIAFMBKCNZACKA-UHFFFAOYSA-N,3.39,-3,9.87,255.32,NaN,NaN,NaN,NaN,NaN,NaN,NaN,NaN,NaN,NaN
1-Methylhistidine,HMDB00001,3.975,2,dd,7.66 4.92,0.1092,0,CN1C=NC(C[C@H](N)C(O)=O)=C1,InChIKey=BRMWTNUJHUMWMS-LURJTMIESA-N,1.86,-3,13.1,23.87,NaN,26.34,4,NaN,NaN,NaN,NaN,NaN,NaN,NaN
dCMP,HMDB01202,3.975,2,m,NA,0.0893,-2,NC1=NC(=O)N(C=C1)[C@H]1C[C@H](O)[C@@H](COP(O)(O)=O)O1,InChIKey=NCMVOABPESMRCP-SHYZEUOFSA-N,1.85,9.4,NA,NA,NA,NA,NA,NA,NA,NA,NA,NA,NA,NA
L-Homocysteic acid,HMDB02205,3.975,3,t,6.29,1,-1,N[C@@H](CCS(O)(=O)=O)C(O)=O,InChIKey=VBOQYPQEPHKASR-VKHMYHEASA-N,3.86,-3.6,NA,NA,NA,NA,NA,NA,NA,NA,NA,NA,NA,NA
16b-Hydroxyestradiol,HMDB00347,3.975,1,m,NA,0.0629,0,[H][C@@]12C[C@H](O)[C@H](O)[C@@]1(C)CC[C@]1([H])C3=C(CC[C@@]21[H])C=C(O)C=C3,InChIKey=PROQIPRRNZUXQM-ZMSHIADSSA-N,11.47,-3.8,NaN,NaN,NaN,NaN,NaN,NaN,NaN,NaN,NaN,NaN,NaN,NaN
6-Phosphogluconic acid,HMDB01316,3.975,1,m,NA,0.0238,-3,O[C@H](COP(O)(O)=O)[C@@H](O)[C@H](O)[C@@H](O)C(O)=O,InChIKey=BIRSGZKFKXLSJQ-SQOUGZDYSA-N,1.78,10.62,NaN,NaN,NaN,NaN,NaN,NaN,NaN,NaN,NaN,NaN,NaN,NaN
DL-O-Phosphoserine,HMDB01721,3.975,22,dd,6.25 3.32,0.4438,-2,NC(COP(O)(O)=O)C(O)=O,InChIKey=BZQFBWGGLXLEPQ-UHFFFAOYSA-N,7.07,-3,NaN,NaN,NaN,NaN,NaN,NaN,NaN,NaN,NaN,NaN,NaN,NaN
D-Maltose,HMDB00163,3.975,1,m,NA,0.3117,0,OC[C@H]1O[C@H](O[C@H]2[C@H](O)[C@H](O)[C@@H](O)O[C@@H]2CO)[C@H](O)[C@@H](O)[C@@H]1O,InChIKey=GUBGYTABKSRVRQ-DKBJLJRDSA-N,7.93,9.34,NaN,NaN,NaN,NaN,NaN,NaN,NaN,NaN,NaN,NaN,NaN,NaN
Glycogen,HMDB00757,3.975,2,br. s.,NA,0.0046,0,OC[C@H]1O[C@H](OC[C@H]2O[C@H](O[C@H]3[C@H](O)[C@@H](O)[C@@H](O)O[C@@H]3CO)[C@H](O)[C@@H](O)[C@@H]2O[C@H]2O[C@H](CO)[C@@H](O)[C@H](O)[C@H]2O)[C@H](O)[C@@H](O)[C@@H]1O,InChIKey=BYSGBSNPRWKUQH-UJDJLXLFSA-N,2.54,-7.5,NaN,NaN,NaN,NaN,NaN,NaN,NaN,NaN,NaN,NaN,NaN,NaN
Salicyluric acid,HMDB00840,3.975,2,d,5.44,1,-1,OC(=O)CNC(=O)C1=CC=CC=C1O,InChIKey=ONJSZLXSECQROL-UHFFFAOYSA-N,3.7,5.43,NaN,NaN,NaN,NaN,NaN,NaN,NaN,NaN,NaN,NaN,NaN,NaN
Phosphoserine,HMDB00272,3.983,2,ddd,6.43 3.23 0.45,0.1664,-2,N[C@@H](COP(O)(O)=O)C(O)=O,InChIKey=BZQFBWGGLXLEPQ-REOHCLBHSA-N,3.44,-0.35,NaN,4.201666667,NaN,NaN,4.6,NaN,NaN,NaN,NaN,NaN,NaN,NaN
3-Hydroxydodecanoic acid,HMDB00387,3.985,1,m,NA,0.0659,-1,CCCCCCCCCC(O)CC(O)=O,InChIKey=MUCMKTPAZLSKTL-UHFFFAOYSA-N,18.3,-0.13,0.3,NaN,NaN,NaN,NaN,NaN,NaN,NaN,NaN,NaN,NaN,NaN
Galactitol,HMDB00107,3.985,2,t,6.41,0.2939,0,OC[C@H](O)[C@@H](O)[C@@H](O)[C@H](O)CO,InChIKey=FBPFZTCFMRRESA-GUCUJZIJSA-N,2.46,8.43,0.59,42,NaN,19.44,1.735,NaN,NaN,NaN,NaN,NaN,NaN,NaN
L-Cysteine,HMDB00574,3.985,26,dd,NA,0.8599,0,N[C@@H](CS)C(O)=O,InChIKey=XUJNEKJLAYXESH-REOHCLBHSA-N,3.77,-0.38,74.465,17.20733333,NaN,1.3,NaN,NaN,NaN,NaN,NaN,NaN,NaN,NaN
Uridine 5'-monophosphate,HMDB00288,3.985,2,m,NA,0.297,-2,O[C@H]1[C@@H](O)[C@@H](O[C@@H]1COP(O)(O)=O)N1C=CC(=O)NC1=O,InChIKey=DJJCXFVJDGTHFX-XVFCMESISA-N,4.67,2.02,184,NaN,NaN,0.21,NaN,NaN,NaN,NaN,NaN,NaN,NaN,NaN
Guaifenesin,HMDB04998,3.985,2,m,NA,0.1567,0,COC1=CC=CC=C1OCC(O)CO,InChIKey=HSRJKNPTNIJEKV-UHFFFAOYSA-N,1.87,10,NA,NA,NA,NA,NA,NA,NA,NA,NA,NA,NA,NA
1.5-Anhydrosorbitol,HMDB02712,3.985,1,dd,11.19 5.38,0.3362,0,OC[C@H]1OC[C@H](O)[C@@H](O)[C@@H]1O,InChIKey=MPCAJMNYNOGXPB-SLPGGIOYSA-N,1.86,-6.7,NaN,NaN,NaN,NaN,62.96666667,NaN,NaN,NaN,NaN,NaN,NaN,NaN
3-Methyladenine,HMDB11600,3.985,3,d,0.44,1,0,CN1C=NC(N)=C2N=CN=C12,InChIKey=FSASIHFSFGAIJM-UHFFFAOYSA-N,1.86,-3,NaN,0.86,NaN,NaN,NaN,NaN,NaN,NaN,NaN,NaN,NaN,NaN
Catechin,HMDB02780,3.985,1,td,NA,0.083,0,O[C@H]1CC2=C(O)C=C(O)C=C2O[C@@H]1C1=CC(O)=C(O)C=C1,InChIKey=PFTAWBLQPZVEMU-DZGCQCFKSA-N,0.83,4.95,NaN,NaN,NaN,NaN,NaN,NaN,NaN,NaN,NaN,NaN,NaN,NaN
D-Cysteine,HMDB03417,3.985,1,dd,5.69 4.10,0.2848,0,N[C@H](CS)C(O)=O,InChIKey=XUJNEKJLAYXESH-UWTATZPHSA-N,14.58,-3,NaN,NaN,NaN,NaN,NaN,NaN,NaN,NaN,NaN,NaN,NaN,NaN
Thymidine 5'-triphosphate,HMDB01342,3.99,1,m,NA,0.0762,-3,CC1=CN([C@H]2C[C@H](O)[C@@H](COP(O)(=O)OP(O)(=O)OP(O)(O)=O)O2)C(=O)NC1=O,InChIKey=NHVNXKFIZYSCEB-XLPZGREQSA-N,1.38,-3.7,NA,NA,NA,NA,NA,NA,NA,NA,NA,NA,NA,NA
Uridine diphosphate-N-acetylglucosamine,HMDB00290,3.993,2,ddd,13.22 6.73 3.11,0.0485,-2,CC(=O)N[C@@H]1[C@@H](O)[C@H](O)[C@@H](CO)O[C@@H]1OP(O)(=O)OP(O)(=O)OC[C@H]1O[C@H]([C@H](O)[C@@H]1O)N1C=CC(=O)NC1=O,InChIKey=LFTYTUAZOPRMMI-CFRASDGPSA-N,4.67,-0.88,NaN,NaN,NaN,NaN,NaN,NaN,NaN,NaN,NaN,NaN,NaN,NaN
D-Serine,HMDB03406,3.994,1,dd,12.24 3.27,0.9921,0,N[C@H](CO)C(O)=O,InChIKey=MTCFGRXMJLQNBG-UWTATZPHSA-N,14.58,-3,2.28,0.0021,NaN,NaN,52,NaN,NaN,NaN,NaN,NaN,NaN,NaN
N-Acetylneuraminic acid,HMDB00230,3.995,1,d,NA,0.153,-1,CC(=O)N[C@@H]1[C@@H](O)C[C@](O)(O[C@H]1[C@H](O)[C@H](O)CO)C(O)=O,InChIKey=SQVRNKJHWKZAKO-PFQGKNLYSA-N,2.89,6.96,0.57,8.6,NaN,NaN,11.9,NaN,NaN,NaN,NaN,NaN,NaN,NaN
Pantothenic acid,HMDB00210,3.995,1,s,NA,0.4295,-1,CC(C)(CO)C(O)C(=O)NCCC(O)=O,InChIKey=GHOKWGTUZJEAQD-UHFFFAOYSA-N,1.74,-3,4.91,NaN,NaN,0.433,3.25,NaN,NaN,NaN,NaN,NaN,NaN,NaN
Isocitric acid,HMDB00193,3.995,1,d,NA,0.6217,-3,OC(C(CC(O)=O)C(O)=O)C(O)=O,InChIKey=ODBLHEXUDAPZAU-UHFFFAOYSA-N,1.15,6.13,6,26.73,NaN,NaN,NaN,NaN,NaN,NaN,NaN,NaN,NaN,NaN
L-Phenylalanine,HMDB00159,3.995,2,dd,7.88 5.31,0.3236,0,N[C@@H](CC1=CC=CC=C1)C(O)=O,InChIKey=COLNVLDHVKWLRT-QMMMGPOBSA-N,3.72,-2.8,86.86,4.467,NaN,NA,9.05,NaN,NaN,NaN,NaN,NaN,NaN,NaN
D-Galactose,HMDB00143,3.995,1,d,2.66,0.2607,0,OC[C@H]1O[C@H](O)[C@H](O)[C@@H](O)[C@H]1O,InChIKey=WQZGKKKJIJFFOK-PHYPRBDBSA-N,1.87,10,88.3,4.4,NaN,83.46,166,NaN,NaN,NaN,NaN,NaN,NaN,NaN
L-Histidine,HMDB00177,3.995,1,dd,7.73 4.98,0.6203,0,N[C@@H](CC1=CNC=N1)C(O)=O,InChIKey=HNDVDQJCIGZPNO-YFKPBYRVSA-N,14.58,-3,118.7666667,60.60726667,NaN,NA,11.4,NaN,NaN,NaN,NaN,NaN,NaN,NaN
Glucosamine 6-phosphate,HMDB01254,3.995,13,m,NA,0.3773,-1,N[C@H]1[C@@H](O)O[C@H](COP(O)(O)=O)[C@@H](O)[C@@H]1O,InChIKey=XHMJOUIAFHJHBW-UKFBFLRUSA-N,7.82,9.73,NA,NA,NA,NA,NA,NA,NA,NA,NA,NA,NA,NA
3-Hydroxydodecanedioic acid,HMDB00413,3.995,1,m,NA,0.0831,-2,OC(CCCCCCCCC(O)=O)CC(O)=O,InChIKey=FYVQCLGZFXHEGL-UHFFFAOYSA-N,18.3,9.59,NaN,NaN,NaN,NaN,NaN,NaN,NaN,NaN,NaN,NaN,NaN,NaN
Cytidine monophosphate,HMDB00095,3.995,1,dd,5.08 3.05,0.2079,-2,NC1=NC(=O)N(C=C1)[C@@H]1O[C@H](COP(O)(O)=O)[C@@H](O)[C@H]1O,InChIKey=IERHLVCPSMICTF-XVFCMESISA-N,11.62,-3.2,NaN,NaN,NaN,NaN,NaN,NaN,NaN,NaN,NaN,NaN,NaN,NaN
D-Aspartic acid,HMDB06483,3.995,2,dd,7.81 4.10,0.7116,-1,N[C@H](CC(O)=O)C(O)=O,InChIKey=CKLJMWTZIZZHCS-UWTATZPHSA-N,1.89,-6.6,NaN,NA,NaN,NaN,NaN,NaN,NaN,NaN,NaN,NaN,NaN,NaN
Melibiose,HMDB00048,3.995,20,m,NA,0.4061,0,OC[C@H]1O[C@H](OC[C@H]2OC(O)[C@H](O)[C@@H](O)[C@@H]2O)[C@H](O)[C@@H](O)[C@H]1O,InChIKey=DLRVVLDZNNYCBX-ABXHMFFYSA-N,2.06,-0.1,NaN,NaN,NaN,NaN,NaN,NaN,NaN,NaN,NaN,NaN,NaN,NaN
Threonic acid,HMDB00943,3.995,1,m,NA,0.4596,-1,OC[C@@H](O)[C@H](O)C(O)=O,InChIKey=JPIJQSOTBSSVTP-GBXIJSLDSA-N,4.39,-2.9,NaN,10,NaN,NaN,NaN,NaN,NaN,NaN,NaN,NaN,NaN,NaN
3-Hydroxysuberic acid,HMDB00325,3.999,1,m,NA,0.1614,-2,OC(CCCCC(O)=O)CC(O)=O,InChIKey=ARJZZFJXSNJKGR-UHFFFAOYSA-N,3.89,-3.4,NaN,NaN,NaN,NaN,NaN,NaN,NaN,NaN,NaN,NaN,NaN,NaN
Bilirubin,HMDB00054,4.005,2,br. s.,NA,0.3128,-2,CC1=C(C=C)\C(NC1=O)=C\C1=C(C)C(CCC(O)=O)=C(CC2=C(CCC(O)=O)C(C)=C(N2)\C=C2/NC(=O)C(C=C)=C2C)N1,InChIKey=BPYKTIZUTYGOLE-IFADSCNNSA-N,3.6,-0.54,11.6,NA,NaN,NaN,0,NaN,NaN,NaN,NaN,NaN,NaN,NaN
Glucose 6-phosphate,HMDB01401,4.005,2,dd,6.23 3.14,0.5912,-2,OC1O[C@H](COP(O)(O)=O)[C@@H](O)[C@H](O)[C@H]1O,InChIKey=NBSCHQHZLSJFNQ-GASJEMHNSA-N,1.86,4.95,29.1,NaN,NaN,NaN,NaN,NaN,NaN,NaN,NaN,NaN,NaN,NaN
2-Hydroxybutyric acid,HMDB00008,4.005,13,dd,6.560 4.520,NA,-1,CCC(O)C(O)=O,InChIKey=AFENDNXGAFYKQO-UHFFFAOYSA-N,12.59,-0.0012,54,NaN,NaN,NaN,53.33333333,NaN,NaN,NaN,NaN,NaN,NaN,NaN
Coenzyme A,HMDB01423,4.005,1,s,NA,0.4743,-4,CC(C)(COP(O)(=O)OP(O)(=O)OC[C@H]1O[C@H]([C@H](O)[C@@H]1OP(O)(O)=O)N1C=NC2=C1N=CN=C2N)C(O)C(=O)NCCC(=O)NCCS,InChIKey=RGJOEKWQDUBAIZ-DRCCLKDXSA-N,16.92,3.22,NA,NA,NA,NA,NA,NA,NA,NA,NA,NA,NA,NA
Maltitol,HMDB02928,4.005,1,dt,7.44 3.79,0.3903,0,[H][C@@](O[C@H]1O[C@H](CO)[C@@H](O)[C@H](O)[C@H]1O)([C@H](O)CO)[C@H](O)[C@@H](O)CO,InChIKey=VQHSOMBJVWLPSR-WUJBLJFYSA-N,1.22,-0.88,NA,NA,NA,NA,NA,NA,NA,NA,NA,NA,NA,NA
Sedoheptulose,HMDB03219,4.005,1,dd,4.28 2.45,0.3931,0,OCC(O)C(O)C(O)C(O)C(=O)CO,InChIKey=HSNZZMHEPUFJNZ-UHFFFAOYSA-N,14.58,-3,NA,NA,NA,NA,NA,NA,NA,NA,NA,NA,NA,NA
Stachyose,HMDB03553,4.005,2,m,NA,0.5203,0,OC[C@H]1O[C@@](CO)(O[C@H]2O[C@H](CO[C@H]3O[C@H](CO[C@H]4O[C@H](CO)[C@H](O)[C@H](O)[C@H]4O)[C@H](O)[C@H](O)[C@H]3O)[C@@H](O)[C@H](O)[C@H]2O)[C@@H](O)[C@@H]1O,InChIKey=UQZIYBXSHAGNOE-XNSRJBNMSA-N,14.58,-3,NA,NA,NA,NA,NA,NA,NA,NA,NA,NA,NA,NA
PA(16:0/16:0),HMDB00674,4.005,2,td,NA,0.0066,-2,CCCCCCCCCCCCCCCC(=O)OC[C@H](COP(O)(O)=O)OC(=O)CCCCCCCCCCCCCCC,InChIKey=PORPENFLTBBHSG-MGBGTMOVSA-N,2.56,10.29,NaN,NaN,NaN,NaN,NaN,NaN,NaN,NaN,NaN,NaN,NaN,NaN
3-Phosphoglyceric acid,HMDB00807,4.015,1,m,NA,0.1106,-3,OC(COP(O)(O)=O)C(O)=O,InChIKey=OSJPPGNTCRNQQC-UHFFFAOYSA-N,0.95,-3.8,47.2,NaN,NaN,NaN,NaN,NaN,NaN,NaN,NaN,NaN,NaN,NaN
L-Asparagine,HMDB00168,4.015,5,dd,7.69 4.26,0.9103,0,N[C@@H](CC(N)=O)C(O)=O,InChIKey=DCXYFEDJOCDNAF-REOHCLBHSA-N,6.97,-5,47.825,9.715166667,NaN,NaN,5.505,NaN,NaN,NaN,NaN,NaN,NaN,NaN
Caffeine,HMDB01847,4.015,3,s,NA,0.8941,0,CN1C=NC2=C1C(=O)N(C)C(=O)N2C,InChIKey=RYYVLZVUVIJVGH-UHFFFAOYSA-N,3.78,-2.4,78,0.33,NaN,9.65,NaN,NaN,NaN,NaN,NaN,NaN,NaN,NaN
Thymidine 3'.5'-cyclic monophosphate,HMDB01570,4.015,2,m,NA,0.1173,-1,CC1=CN([C@H]2CC3OP(O)(=O)OCC3O2)C(=O)NC1=O,InChIKey=QSJFDOVQWZVUQG-KAVNDROISA-N,4.82,-1.5,NA,NA,NA,NA,NA,NA,NA,NA,NA,NA,NA,NA
Hyodeoxycholic acid,HMDB00733,4.015,1,m,NA,0.0786,-1,[H][C@@]12CC[C@H]([C@H](C)CCC(O)=O)[C@@]1(C)CC[C@@]1([H])[C@@]2([H])C[C@H](O)C2C[C@H](O)CC[C@]12C,InChIKey=DGABKXLVXPYZII-CDONHWFASA-N,5.01,-3.2,NaN,NaN,NaN,NaN,NaN,NaN,NaN,NaN,NaN,NaN,NaN,NaN
Isomaltose,HMDB02923,4.015,1,m,NA,0.2808,0,OC[C@H]1O[C@H](OC[C@H]2OC(O)[C@H](O)[C@@H](O)[C@@H]2O)[C@H](O)[C@@H](O)[C@@H]1O,InChIKey=DLRVVLDZNNYCBX-RTPHMHGBSA-N,9.91,-1.4,NaN,NaN,NaN,NaN,NaN,NaN,NaN,NaN,NaN,NaN,NaN,NaN
Metoprolol,HMDB01932,4.015,1,dd,9.53 4.34,0.0273,1,COCCC1=CC=C(OCC(O)CNC(C)C)C=C1,InChIKey=IUBSYMUCCVWXPE-UHFFFAOYSA-N,0.83,7.85,NaN,NaN,NaN,NaN,NaN,NaN,NaN,NaN,NaN,NaN,NaN,NaN
N-Acetylgalactosamine,HMDB00212,4.015,1,d,3.25,0.0593,0,CC(=O)N[C@H]1[C@@H](O)O[C@H](CO)[C@H](O)[C@@H]1O,InChIKey=OVRNDRQMDRJTHS-CBQIKETKSA-N,15.7,-3.3,NaN,NaN,NaN,NaN,NaN,NaN,NaN,NaN,NaN,NaN,NaN,NaN
Raffinose,HMDB03213,4.015,1,d,2.75,0.3995,0,OC[C@H]1O[C@@](CO)(OC2O[C@H](COC3O[C@H](CO)[C@H](O)[C@H](O)[C@H]3O)[C@@H](O)[C@H](O)[C@H]2O)[C@@H](O)[C@@H]1O,InChIKey=MUPFEKGTMRGPLJ-BQCSWRFHSA-N,14.58,-3,NaN,NaN,NaN,NaN,NaN,NaN,NaN,NaN,NaN,NaN,NaN,NaN
D-Fructose,HMDB00660,4.02,9,m,NA,NA,0,OC[C@H]1O[C@](O)(CO)[C@@H](O)[C@@H]1O,InChIKey=RFSUNEUAIZKAJO-ARQDHWQXSA-N,3.61,-7,31,NaN,NaN,NaN,200,NaN,NaN,NaN,NaN,NaN,NaN,NaN
4-Hydroxyphenylpyruvic acid,HMDB00707,4.025,1,s,NA,1,-1,OC(=O)C(=O)CC1=CC=C(O)C=C1,InChIKey=KKADPXVIOXHVKN-UHFFFAOYSA-N,4.05,1.36,0.37,NaN,NaN,NaN,NaN,NaN,NaN,NaN,NaN,NaN,NaN,NaN
L-2-Hydroxyglutaric acid,HMDB00694,4.025,1,dd,7.55 4.07,0.8003,-2,O[C@@H](CCC(O)=O)C(O)=O,InChIKey=HWXBTNAVRSUOJR-VKHMYHEASA-N,1.07,-3.6,1.5,17.6,NaN,NaN,NaN,NaN,NaN,NaN,NaN,NaN,NaN,NaN
Pseudouridine,HMDB00767,4.025,1,m,NA,0.1794,0,OC[C@H]1O[C@H]([C@H](O)[C@@H]1O)C1=CNC(=O)NC1=O,InChIKey=PTJWIQPHWPFNBW-GBNDHIKLSA-N,1.08,-3.6,3.18,17.15566667,NaN,NaN,NaN,NaN,NaN,NaN,NaN,NaN,NaN,NaN
Adenosine monophosphate,HMDB00045,4.025,1,dd,4.34 3.40,0.3417,-2,NC1=NC=NC2=C1N=CN2[C@@H]1O[C@H](COP(O)(O)=O)[C@@H](O)[C@H]1O,InChIKey=UDMBCSSLTHHNCD-KQYNXXCUSA-N,3.5,-1.4,51,NaN,NaN,0.3,NA,NaN,NaN,NaN,NaN,NaN,NaN,NaN
Heparin,HMDB01394,4.025,2,br. s.,NA,0.0148,-6,CC(=O)N[C@@H]1[C@@H](O)[C@H](O)[C@@H](COS(O)(=O)=O)O[C@@H]1O[C@H]1[C@H](O)[C@@H](O)[C@H](O[C@@H]2[C@@H](O)O[C@H](O[C@H]3[C@H](O)[C@@H](OS(O)(=O)=O)C(O)O[C@H]3C(O)=O)[C@H](OS(O)(=O)=O)[C@H]2CS(O)(=O)=O)O[C@@H]1C(O)=O,InChIKey=ZFGMDIBRIDKWMY-PASTXAENSA-N,1.87,10,NA,NA,NA,NA,NA,NA,NA,NA,NA,NA,NA,NA
2-Hydroxydecanedioic acid,HMDB00424,4.025,5,dd,7.31 4.20,0.1631,-2,OC(CCCCCCCC(O)=O)C(O)=O,InChIKey=LPIOYESQKJFWPQ-UHFFFAOYSA-N,4.56,10.12,NaN,NaN,NaN,NaN,NaN,NaN,NaN,NaN,NaN,NaN,NaN,NaN
Deoxycholic acid glycine conjugate,HMDB00631,4.025,1,m,NA,0.0876,-1,[H][C@]12CCC3C4CC[C@H]([C@H](C)CCC(=O)NCC(O)=O)[C@@]4(C)[C@@H](O)CC3[C@@]1(C)CC[C@@H](O)C2,InChIKey=WVULKSPCQVQLCU-ZMBDPXIHSA-N,1.86,-6.7,NaN,NaN,NaN,NaN,NaN,NaN,NaN,NaN,NaN,NaN,NaN,NaN
Guanosine monophosphate,HMDB01397,4.025,1,m,NA,0.0139,-2,NC1=NC2=C(N=CN2[C@@H]2O[C@H](COP(O)(O)=O)[C@@H](O)[C@H]2O)C(=O)N1,InChIKey=RQFCJASXJCIDSX-UUOKFMHZSA-N,4.27,0.53,NaN,NaN,NaN,NaN,NaN,NaN,NaN,NaN,NaN,NaN,NaN,NaN
Hydroxyoctanoic acid,HMDB00711,4.025,1,dd,7.25 4.28,0.1555,-1,CCCCCCC(O)C(O)=O,InChIKey=JKRDADVRIYVCCY-UHFFFAOYSA-N,17.26,-3.7,NaN,NaN,NaN,NaN,NaN,NaN,NaN,NaN,NaN,NaN,NaN,NaN
O-Phosphoethanolamine,HMDB00224,4.025,2,m,NA,0.1549,-1,NCCOP(O)(O)=O,InChIKey=SUHOOTKUPISOBE-UHFFFAOYSA-N,9.21,-4.9,NaN,6.238,NaN,NaN,6.15,NaN,NaN,NaN,NaN,NaN,NaN,NaN
Quinic acid,HMDB03072,4.025,1,ddd,10.81 9.33 4.79,0.1334,-1,OC1C[C@@](O)(C[C@@H](O)[C@H]1O)C(O)=O,InChIKey=AAWZDTNXLSGCEK-RKGSPJAZSA-N,1.86,-0.032,NaN,NaN,NaN,NaN,NaN,NaN,NaN,NaN,NaN,NaN,NaN,NaN
Shikimic acid,HMDB03070,4.025,2,m,NA,0.5913,-1,O[C@@H]1CC(=C[C@@H](O)[C@H]1O)C(O)=O,InChIKey=JXOHGGNKMLTUBP-HSUXUTPPSA-N,1.86,-0.032,NaN,NaN,NaN,NaN,NaN,NaN,NaN,NaN,NaN,NaN,NaN,NaN
Isopropyl alcohol,HMDB00863,4.027,10,m,NA,NA,0,CC(C)O,InChIKey=KFZMGEQAYNKOFK-UHFFFAOYSA-N,1.22,-3.5,83.3,NaN,NaN,9.71,22,NaN,NaN,NaN,NaN,NaN,NaN,NaN
Thymidine,HMDB00273,4.028,1,dt,NA,0.1351,0,CC1=CN([C@H]2C[C@H](O)[C@@H](CO)O2)C(=O)NC1=O,InChIKey=IQFYYKKMVGJFEH-XLPZGREQSA-N,18.3,-5.5,0.205,6.87,NaN,NaN,NaN,NaN,NaN,NaN,NaN,NaN,NaN,NaN
5-Hydroxy-L-tryptophan,HMDB00472,4.035,12,dd,8.12 4.78,0.3877,0,NC(CC1=CNC2=C1C=C(O)C=C2)C(O)=O,InChIKey=LDCYZAJDBXYCGN-UHFFFAOYSA-N,4.65,9.53,0.018,0.0078,NaN,NaN,NaN,NaN,NaN,NaN,NaN,NaN,NaN,NaN
L-Arabinose,HMDB00646,4.035,2,m,NA,0.1618,0,O[C@H]1COC(O)[C@H](O)[C@H]1O,InChIKey=SRBFZHDQGSBBOR-HWQSCIPKSA-N,13.62,-3,2.5,8.75,NaN,NaN,14.15,NaN,NaN,NaN,NaN,NaN,NaN,NaN
Inosinic acid,HMDB00175,4.035,1,m,NA,0.2657,-2,O[C@@H]1[C@@H](COP(O)(O)=O)O[C@H]([C@@H]1O)N1C=NC2=C1N=CNC2=O,InChIKey=GRSZFWQUAKGDAV-KQYNXXCUSA-N,18.2,-3,63,NaN,NaN,NaN,3.19,NaN,NaN,NaN,NaN,NaN,NaN,NaN
Erythrose,HMDB02649,4.035,1,dd,4.57 3.58,0.1469,0,O[C@@H]1COC(O)[C@@H]1O,InChIKey=FMAORJIQYMIRHF-HERZVMAMSA-N,1.93,-0.63,NaN,NaN,NaN,NaN,NaN,NaN,NaN,NaN,NaN,NaN,NaN,NaN
Taurodeoxycholic acid,HMDB00896,4.035,1,br. s.,NA,0.2135,-1,[H][C@@]1(CC[C@@]2([H])[C@]3([H])CC[C@]4([H])C[C@H](O)CC[C@]4(C)[C@@]3([H])C[C@H](O)[C@]12C)[C@H](C)CCC(=O)NCCS(O)(=O)=O,InChIKey=AWDRATDZQPNJFN-VAYUFCLWSA-N,1.86,-6.7,NaN,NaN,NaN,NaN,NaN,NaN,NaN,NaN,NaN,NaN,NaN,NaN
Uridine diphosphategalactose,HMDB00302,4.035,1,d,3.19,0.4099,-2,OC[C@H]1O[C@H](O[P@@](O)(=O)O[P@@](O)(=O)OC[C@H]2O[C@H]([C@H](O)[C@@H]2O)N2C=CC(=O)NC2=O)[C@H](O)[C@@H](O)[C@H]1O,InChIKey=HSCJRCZFDFQWRP-ABVWGUQPSA-N,4.48,-2.8,NaN,NaN,NaN,NaN,NaN,NaN,NaN,NaN,NaN,NaN,NaN,NaN
Gluconic acid,HMDB00625,4.042,1,t,2.63,0.3271,-1,OC[C@@H](O)[C@@H](O)[C@H](O)[C@@H](O)C(O)=O,InChIKey=RGHNJXZEOKUKBD-SQOUGZDYSA-N,14.58,-3,NA,NaN,NaN,45.49,NaN,NaN,NaN,NaN,NaN,NaN,NaN,NaN
D-Fructose,HMDB00660,4.044,8,dd,12.882 1.016,NA,0,OC[C@H]1O[C@](O)(CO)[C@@H](O)[C@@H]1O,InChIKey=RFSUNEUAIZKAJO-ARQDHWQXSA-N,3.61,-7,31,NaN,NaN,NaN,200,NaN,NaN,NaN,NaN,NaN,NaN,NaN
Aldosterone,HMDB00037,4.045,2,ddd,NA,0.0254,0,C[C@]12CCC(=O)C=C1CCC1C3CC[C@H](C(=O)CO)[C@]3(C[C@H](O)C21)C=O,InChIKey=PQSUYGKTWSAVDQ-SRPWZAMTSA-N,4.03,-3,6.80E-05,0.01,NaN,NA,NaN,NaN,NaN,NaN,NaN,NaN,NaN,NaN
N-Acetylneuraminic acid,HMDB00230,4.045,1,m,NA,0.0557,-1,CC(=O)N[C@@H]1[C@@H](O)C[C@](O)(O[C@H]1[C@H](O)[C@H](O)CO)C(O)=O,InChIKey=SQVRNKJHWKZAKO-PFQGKNLYSA-N,2.89,6.96,0.57,8.6,NaN,NaN,11.9,NaN,NaN,NaN,NaN,NaN,NaN,NaN
Paraxanthine,HMDB01860,4.045,3,s,NA,0.8816,0,CN1C=NC2=C1C(=O)N(C)C(=O)N2,InChIKey=QUNWUDVFRNGTCO-UHFFFAOYSA-N,11.3,8.36,10,2.5,NaN,NaN,NaN,NaN,NaN,NaN,NaN,NaN,NaN,NaN
Glucose 6-phosphate,HMDB01401,4.045,1,m,11.80 6.95 4.02,0.1353,-2,OC1O[C@H](COP(O)(O)=O)[C@@H](O)[C@H](O)[C@H]1O,InChIKey=NBSCHQHZLSJFNQ-GASJEMHNSA-N,1.86,4.95,29.1,NaN,NaN,NaN,NaN,NaN,NaN,NaN,NaN,NaN,NaN,NaN
SM(d18:1/18:0),HMDB01348,4.045,1,m,NA,0.0062,0,CCCCCCCCCCCCCCCCCC(=O)N[C@@]([H])(COP(O)(=O)OCC[N+](C)(C)C)[C@]([H])(O)\C=C\CCCCCCCCCCCCC,InChIKey=LKQLRGMMMAHREN-YJFXYUILSA-O,1.86,-6.7,157.1,NaN,NaN,0.121,NaN,NaN,NaN,NaN,NaN,NaN,NaN,NaN
2.3-Diphosphoglyceric acid,HMDB01294,4.045,2,m,NA,0.0773,-5,OC(=O)[C@@H](COP(O)(O)=O)OP(O)(O)=O,InChIKey=XOHUEYCVLUUEJJ-UWTATZPHSA-N,4.84,-3.7,NaN,NaN,NaN,NaN,NaN,NaN,NaN,NaN,NaN,NaN,NaN,NaN
2-Hydroxycaproic acid,HMDB01624,4.045,11,dd,7.20 4.28,0.1638,-1,CCCCC(O)C(O)=O,InChIKey=NYHNVHGFPZAZGA-UHFFFAOYSA-N,19.94,-1.6,NaN,NaN,NaN,NaN,NaN,NaN,NaN,NaN,NaN,NaN,NaN,NaN
2-Methylhippuric acid,HMDB11723,4.045,2,d,5.86,0.479,-1,CC1=CC=CC=C1C(=O)NCC(O)=O,InChIKey=YOEBAVRJHRCKRE-UHFFFAOYSA-N,1.86,-6.7,NaN,NaN,NaN,NaN,NaN,NaN,NaN,NaN,NaN,NaN,NaN,NaN
Deoxycytidine,HMDB00014,4.045,1,dt,5.07 3.78,0.4128,0,NC1=NC(=O)N(C=C1)[C@H]1C[C@H](O)[C@@H](CO)O1,InChIKey=CKTSBUTUHBMZGZ-SHYZEUOFSA-N,10.39,9.5,NaN,NaN,NaN,NaN,NaN,NaN,NaN,NaN,NaN,NaN,NaN,NaN
Gluconolactone,HMDB00150,4.045,1,d,3.2,0.4603,0,OC[C@H]1OC(=O)[C@H](O)[C@@H](O)[C@@H]1O,InChIKey=PHOQVHQSTUBQQK-SQOUGZDYSA-N,4.22,-0.38,NaN,NaN,NaN,NaN,NaN,NaN,NaN,NaN,NaN,NaN,NaN,NaN
Nicotinamide ribotide,HMDB00229,4.045,1,ddd,NA,0.2147,-1,NC(=O)C1=CC=C[N+](=C1)[C@@H]1O[C@H](COP(O)([O-])=O)[C@@H](O)[C@H]1O,InChIKey=DAYLJWODMCOQEW-TURQNECASA-N,14.55,-1,NaN,66.67,NaN,NaN,NaN,NaN,NaN,NaN,NaN,NaN,NaN,NaN
S-Adenosylhomocysteine,HMDB00939,4.045,1,td,6.44 3.80,0.2264,0,N[C@@H](CCSC[C@H]1O[C@H]([C@H](O)[C@@H]1O)N1C=NC2=C(N)N=CN=C12)C(O)=O,InChIKey=ZJUKTBDSGOFHSH-WFMPWKQPSA-N,9.43,1.41,NaN,NaN,NaN,NaN,0.01,NaN,NaN,NaN,NaN,NaN,NaN,NaN
Venlafaxine,HMDB05016,4.045,1,dd,NA,0.0129,1,COC1=CC=C(C=C1)C(CN(C)C)C1(O)CCCCC1,InChIKey=PNVNVHUZROJLTJ-UHFFFAOYSA-N,1.87,10,NaN,NaN,NaN,NaN,NaN,NaN,NaN,NaN,NaN,NaN,NaN,NaN
Glycocholic acid,HMDB00138,4.055,2,m,NA,0.1313,-1,[H][C@@]12CC[C@H]([C@H](C)CCC(=O)NCC(O)=O)[C@@]1(C)[C@@H](O)C[C@@]1([H])[C@@]2([H])[C@H](O)CC2C[C@H](O)CC[C@]12C,InChIKey=RFDAIACWWDREDC-MZMBZMQMSA-N,4.55,8.85,0.06,0.42,NaN,NaN,NaN,NaN,NaN,NaN,NaN,NaN,NaN,NaN
5-Methoxytryptophan,HMDB02339,4.055,1,dd,7.95 4.92,0.0819,0,COC1=CC2=C(NC=C2C[C@H](N)C(O)=O)C=C1,InChIKey=KVNPSKDDJARYKK-JTQLQIEISA-N,11.59,10,NA,NA,NA,NA,NA,NA,NA,NA,NA,NA,NA,NA
7-Methyladenine,HMDB11614,4.055,3,s,NA,1,0,CN1C=NC2=NC=NC(N)=C12,InChIKey=HCGHYQLFMPXSDU-UHFFFAOYSA-N,1.86,-3,NA,NA,NA,NA,NA,NA,NA,NA,NA,NA,NA,NA
Guaifenesin,HMDB04998,4.055,1,m,NA,0.0961,0,COC1=CC=CC=C1OCC(O)CO,InChIKey=HSRJKNPTNIJEKV-UHFFFAOYSA-N,1.87,10,NA,NA,NA,NA,NA,NA,NA,NA,NA,NA,NA,NA
Stachyose,HMDB03553,4.055,4,m,NA,0.6324,0,OC[C@H]1O[C@@](CO)(O[C@H]2O[C@H](CO[C@H]3O[C@H](CO[C@H]4O[C@H](CO)[C@H](O)[C@H](O)[C@H]4O)[C@H](O)[C@H](O)[C@H]3O)[C@@H](O)[C@H](O)[C@H]2O)[C@@H](O)[C@@H]1O,InChIKey=UQZIYBXSHAGNOE-XNSRJBNMSA-N,14.58,-3,NA,NA,NA,NA,NA,NA,NA,NA,NA,NA,NA,NA