Metabolite,HMDB Name,Shift (ppm),Hs,Type,J (Hz),Height,Physiological Charge,SMILES,InChlKey,pKa (Strongest Acidic),pKa (Strongest Basic),Blood,Urine,Feces,Saliva,Cerebrospinal Fluid (CSF),Amniotic Fluid,Aqueous Humour,Ascites Fluid,Breast Milk,Lymph,Sweat,Tears
Heneicosanoic acid,HMDB02345,0.895,3,t,7.04,0.1093,-1,CCCCCCCCCCCCCCCCCCCCC(O)=O,InChIKey=CKDDRHZIAZRDBW-UHFFFAOYSA-N,11.59,10,NA,NA,NA,NA,NA,NA,NA,NA,NA,NA,NA,NA
TG(16:0/16:0/16:0)[iso],HMDB05356,0.895,9,t,NA,0.254,0,CCCCCCCCCCCCCCCC(=O)OCC(COC(=O)CCCCCCCCCCCCCCC)OC(=O)CCCCCCCCCCCCCCC,InChIKey=PVNIQBQSYATKKL-UHFFFAOYSA-N,1.87,10,NA,NA,NA,NA,NA,NA,NA,NA,NA,NA,NA,NA
2-Ketohexanoic acid,HMDB01864,0.895,33,t,7.37,1,-1,CCCCC(=O)C(O)=O,InChIKey=XNIHZNNZJHYHLC-UHFFFAOYSA-N,19.55,4.95,NaN,NaN,NaN,NaN,NaN,NaN,NaN,NaN,NaN,NaN,NaN,NaN
2-Methyl-3-ketovaleric acid,HMDB00408,0.895,3,t,7.47,0.9463,-1,CCC(=O)C(C)C(O)=O,InChIKey=QTLYPQZWYOHATR-UHFFFAOYSA-N,4.09,-1.4,NaN,1.1,NaN,NaN,NaN,NaN,NaN,NaN,NaN,NaN,NaN,NaN
3-Hexanone,HMDB00753,0.895,2,t,7.44,0.8869,0,CCCC(=O)CC,InChIKey=PFCHFHIRKBAQGU-UHFFFAOYSA-N,18.88,-0.81,NaN,NaN,NaN,NaN,NaN,NaN,NaN,NaN,NaN,NaN,NaN,NaN
Elaidic acid,HMDB00573,0.895,8,t,6.93,0.3685,-1,CCCCCCCC\C=C\CCCCCCCC(O)=O,InChIKey=ZQPPMHVWECSIRJ-MDZDMXLPSA-N,2.91,-3,NaN,NaN,NaN,NaN,NaN,NaN,NaN,NaN,NaN,NaN,NaN,NaN
Nervonic acid,HMDB02368,0.895,3,t,NA,0.0613,-1,CCCCCCCC\C=C/CCCCCCCCCCCCCC(O)=O,InChIKey=GWHCXVQVJPWHRF-KTKRTIGZSA-N,13.78,10,NaN,NaN,NaN,NaN,NaN,NaN,NaN,NaN,NaN,NaN,NaN,NaN
Octadecanol,HMDB02350,0.895,2,t,NA,0.0984,0,CCCCCCCCCCCCCCCCCCO,InChIKey=GLDOVTGHNKAZLK-UHFFFAOYSA-N,12.18,10,NaN,NaN,NaN,NaN,NaN,NaN,NaN,NaN,NaN,NaN,NaN,NaN
PA(16:0/16:0),HMDB00674,0.895,6,t,NA,0.0443,-2,CCCCCCCCCCCCCCCC(=O)OC[C@H](COP(O)(O)=O)OC(=O)CCCCCCCCCCCCCCC,InChIKey=PORPENFLTBBHSG-MGBGTMOVSA-N,2.56,10.29,NaN,NaN,NaN,NaN,NaN,NaN,NaN,NaN,NaN,NaN,NaN,NaN
Sulfolithocholic acid,HMDB00907,0.895,3,s,NA,0.7175,-2,[H][C@@]12CC[C@H]([C@H](C)CCC(O)=O)[C@@]1(C)CC[C@@]1([H])[C@@]2([H])CCC2C[C@@H](CC[C@]12C)OS(O)(=O)=O,InChIKey=AXDXVEYHEODSPN-YPLGJCPNSA-N,0.45,9.33,NaN,NaN,NaN,NaN,NaN,NaN,NaN,NaN,NaN,NaN,NaN,NaN
Tricosanoic acid,HMDB01160,0.895,3,t,NA,0.1049,-1,CCCCCCCCCCCCCCCCCCCCCCC(O)=O,InChIKey=XEZVDURJDFGERA-UHFFFAOYSA-N,1.77,9.47,NaN,NaN,NaN,NaN,NaN,NaN,NaN,NaN,NaN,NaN,NaN,NaN
2-Hydroxybutyric acid,HMDB00008,0.901,34,t,7.47,NA,-1,CCC(O)C(O)=O,InChIKey=AFENDNXGAFYKQO-UHFFFAOYSA-N,12.59,-0.0012,54,NaN,NaN,NaN,53.33333333,NaN,NaN,NaN,NaN,NaN,NaN,NaN
Ethylmalonic acid,HMDB00622,0.904,3,t,7.43,0.9226,-2,CCC(C(O)=O)C(O)=O,InChIKey=UKFXDFUAPNAMPJ-UHFFFAOYSA-N,4.6,-7.1,NaN,1.886666667,NaN,NaN,NaN,NaN,NaN,NaN,NaN,NaN,NaN,NaN
17a-Ethynylestradiol,HMDB01926,0.905,11,s,NA,1,0,[H][C@@]12CC[C@@](O)(C#C)[C@@]1(C)CC[C@]1([H])C3=CC=C(O)C=C3CC[C@@]21[H],InChIKey=BFPYWIDHMRZLRN-SLHNCBLASA-N,18.38,9.27,0.00016,NaN,NaN,NaN,NaN,NaN,NaN,NaN,NaN,NaN,NaN,NaN
1-Butanol,HMDB04327,0.905,3,t,7.43,1,0,CCCCO,InChIKey=LRHPLDYGYMQRHN-UHFFFAOYSA-N,1.86,-6.7,0.08,NaN,NaN,NaN,NaN,NaN,NaN,NaN,NaN,NaN,NaN,NaN
Pentadecanoic acid,HMDB00826,0.905,3,t,7,0.2365,-1,CCCCCCCCCCCCCCC(O)=O,InChIKey=WQEPLUUGTLDZJY-UHFFFAOYSA-N,1.02,3.68,1.561666667,NaN,NaN,NaN,NaN,NaN,NaN,NaN,NaN,NaN,NaN,NaN
Dodecanoic acid,HMDB00638,0.905,3,t,6.77,0.4711,-1,CCCCCCCCCCCC(O)=O,InChIKey=POULHZVOKOAJMA-UHFFFAOYSA-N,4.65,-2.2,5.82225,0.03,NaN,NaN,NaN,NaN,NaN,NaN,NaN,NaN,NaN,NaN
Vaccenic acid,HMDB03231,0.905,3,t,NA,0.5009,-1,CCCCCC\C=C/CCCCCCCCCC(O)=O,InChIKey=UWHZIFQPPBDJPM-FPLPWBNLSA-N,11.41,-2.2,10.7,NaN,NaN,NaN,NaN,NaN,NaN,NaN,NaN,NaN,NaN,NaN
Myristic acid,HMDB00806,0.905,2,t,6.86,0.1976,-1,CCCCCCCCCCCCCC(O)=O,InChIKey=TUNFSRHWOTWDNC-UHFFFAOYSA-N,18.36,4.95,10.84733333,0.06,NaN,NaN,NaN,NaN,NaN,NaN,NaN,NaN,NaN,NaN
Palmitic acid,HMDB00220,0.905,2,t,6.95,0.187,-1,CCCCCCCCCCCCCCCC(O)=O,InChIKey=IPCSVZSSVZVIGE-UHFFFAOYSA-N,12.58,-1.4,61.8,5.65,NaN,11.09,NaN,NaN,NaN,NaN,NaN,NaN,NaN,NaN
Oleic acid,HMDB00207,0.905,3,t,NA,0.5708,-1,CCCCCCCC\C=C/CCCCCCCC(O)=O,InChIKey=ZQPPMHVWECSIRJ-KTKRTIGZSA-N,1.64,-7.2,72.13575,2.68,NaN,NaN,NaN,NaN,NaN,NaN,NaN,NaN,NaN,NaN
TG(10:0/10:0/10:0)[iso],HMDB00548,0.905,9,t,6.9,0.4992,0,CCCCCCCCCC(=O)OCC(COC(=O)CCCCCCCCC)OC(=O)CCCCCCCCC,InChIKey=LADGBHLMCUINGV-UHFFFAOYSA-N,4.99,5.15,NA,NA,NA,NA,NA,NA,NA,NA,NA,NA,NA,NA
Uvaol,HMDB02391,0.905,7,br. s.,NA,0.9671,0,[H][C@@]12[C@@H](C)[C@H](C)CC[C@]1(CO)CC[C@]1(C)C2=CC[C@]2([H])[C@@]3(C)CC[C@H](O)C(C)(C)[C@]3([H])CC[C@@]12C,InChIKey=XUARCIYIVXVTAE-ZAPOICBTSA-N,13.56,-6.6,NA,NA,NA,NA,NA,NA,NA,NA,NA,NA,NA,NA
Valerylglycine,HMDB00927,0.905,3,t,7.39,1,-1,CCCCC(=O)NCC(O)=O,InChIKey=NYZBWOSRZJKQAI-UHFFFAOYSA-N,1.48,4.95,NA,NA,NA,NA,NA,NA,NA,NA,NA,NA,NA,NA
2-Hydroxycaproic acid,HMDB01624,0.905,24,t,7,0.5468,-1,CCCCC(O)C(O)=O,InChIKey=NYHNVHGFPZAZGA-UHFFFAOYSA-N,19.94,-1.6,NaN,NaN,NaN,NaN,NaN,NaN,NaN,NaN,NaN,NaN,NaN,NaN
8.11.14-Eicosatrienoic acid,HMDB02925,0.905,3,t,6.96,0.4331,-1,CCCCC\C=C/C\C=C/C\C=C/CCCCCCC(O)=O,InChIKey=HOBAELRKJCKHQD-QNEBEIHSSA-N,1.86,-3,NaN,NaN,NaN,NaN,NaN,NaN,NaN,NaN,NaN,NaN,NaN,NaN
Behenic acid,HMDB00944,0.905,3,t,6.84,0.0705,-1,CCCCCCCCCCCCCCCCCCCCCC(O)=O,InChIKey=UKMSUNONTOPOIO-UHFFFAOYSA-N,11.12,-3.6,NaN,NaN,NaN,NaN,NaN,NaN,NaN,NaN,NaN,NaN,NaN,NaN
Epi-coprostanol,HMDB01569,0.905,3,m,NA,0.2409,0,[H][C@@]1(CC[C@@]2([H])[C@]3([H])CC[C@@]4([H])C[C@H](O)CC[C@]4(C)[C@@]3([H])CC[C@]12C)[C@H](C)CCCC(C)C,InChIKey=QYIXCDOBOSTCEI-FBVYSKEZSA-N,1.36,-1.4,NaN,NaN,NaN,NaN,NaN,NaN,NaN,NaN,NaN,NaN,NaN,NaN
Methyl isobutyl ketone,HMDB02939,0.905,6,d,6.66,1,0,CC(C)CC(C)=O,InChIKey=NTIZESTWPVYFNL-UHFFFAOYSA-N,1.31,4.01,NaN,NaN,NaN,NaN,NaN,NaN,NaN,NaN,NaN,NaN,NaN,NaN
Nonadecanoic acid,HMDB00772,0.905,3,t,7,0.1603,-1,CCCCCCCCCCCCCCCCCCC(O)=O,InChIKey=ISYWECDDZWTKFF-UHFFFAOYSA-N,12.58,-3,NaN,NaN,NaN,NaN,NaN,NaN,NaN,NaN,NaN,NaN,NaN,NaN
Octane,HMDB01485,0.905,5,t,6.86,0.6374,0,CCCCCCCC,InChIKey=TVMXDCGIABBOFY-UHFFFAOYSA-N,-1.3,-1.4,NaN,NaN,NaN,NaN,NaN,NaN,NaN,NaN,NaN,NaN,NaN,NaN
Sphinganine,HMDB00269,0.915,3,t,NA,0.0879,1,CCCCCCCCCCCCCCC[C@@H](O)[C@@H](N)CO,InChIKey=OTKJDMGTUTTYMP-ZWKOTPCHSA-N,18.3,-2.4,0.011,0.00023,NaN,NaN,NaN,NaN,NaN,NaN,NaN,NaN,NaN,NaN
Sphingosine,HMDB00252,0.915,3,t,7.04,0.2391,1,CCCCCCCCCCCCC\C=C\C(O)C(N)CO,InChIKey=WWUZIQQURGPMPG-CCEZHUSRSA-N,10.33,-2.7,0.05,3.85E-05,NaN,NaN,NaN,NaN,NaN,NaN,NaN,NaN,NaN,NaN
Glycocholic acid,HMDB00138,0.915,2,s,NA,0.8987,-1,[H][C@@]12CC[C@H]([C@H](C)CCC(=O)NCC(O)=O)[C@@]1(C)[C@@H](O)C[C@@]1([H])[C@@]2([H])[C@H](O)CC2C[C@H](O)CC[C@]12C,InChIKey=RFDAIACWWDREDC-MZMBZMQMSA-N,4.55,8.85,0.06,0.42,NaN,NaN,NaN,NaN,NaN,NaN,NaN,NaN,NaN,NaN
Hexanal,HMDB05994,0.915,3,t,7.02,0.2182,0,CCCCCC=O,InChIKey=JARKCYVAAOWBJS-UHFFFAOYSA-N,1.83,-3.6,0.22,NaN,NaN,NaN,0,NaN,NaN,NaN,NaN,NaN,NaN,NaN
Valeric acid,HMDB00892,0.915,18,t,7.39,0.2276,-1,CCCCC(O)=O,InChIKey=NQPDZGIKBAWPEJ-UHFFFAOYSA-N,1.22,-0.53,0.6,NaN,NaN,NA,NaN,NaN,NaN,NaN,NaN,NaN,NaN,NaN
Erucic acid,HMDB02068,0.915,3,t,6.79,0.2246,-1,CCCCCCCC\C=C/CCCCCCCCCCCC(O)=O,InChIKey=DPUOLQHDNGRHBS-KTKRTIGZSA-N,1.46,-6.1,0.646,NaN,NaN,NaN,NaN,NaN,NaN,NaN,NaN,NaN,NaN,NaN
Isovaleric acid,HMDB00718,0.915,6,d,6.61,1,-1,CC(C)CC(O)=O,InChIKey=GWYFCOCPABKNJV-UHFFFAOYSA-N,4.65,3.68,1.6,41,NaN,54.03,1.35,NaN,NaN,NaN,NaN,NaN,NaN,NaN
Cholesterol sulfate,HMDB00653,0.915,4,m,NA,0.4622,-1,[H][C@@]12CC[C@H]([C@H](C)CCCC(C)C)[C@@]1(C)CC[C@@]1([H])[C@@]2([H])CC=C2C[C@H](CC[C@]12C)OS(O)(=O)=O,InChIKey=BHYOQNUELFTYRT-DPAQBDIFSA-N,1.22,-1.3,5.4,NaN,NaN,NaN,NaN,NaN,NaN,NaN,NaN,NaN,NaN,NaN
3-Methyl-2-oxovaleric acid,HMDB00491,0.915,3,t,7.47,0.9327,-1,CCC(C)C(=O)C(O)=O,InChIKey=JVQYSWDUAOAHFM-UHFFFAOYSA-N,1.86,-6.7,20.35,0.3,NaN,NaN,2,NaN,NaN,NaN,NaN,NaN,NaN,NaN
Linoleic acid,HMDB00673,0.915,3,t,6.82,0.6003,-1,CCCCC\C=C/C\C=C/CCCCCCCC(O)=O,InChIKey=OYHQOLUKZRVURQ-HZJYTTRNSA-N,9.99,9.23,48.2866,0.05,NaN,NaN,NaN,NaN,NaN,NaN,NaN,NaN,NaN,NaN
Ibuprofen,HMDB01925,0.915,6,d,6.61,1,-1,CC(C)CC1=CC=C(C=C1)C(C)C(O)=O,InChIKey=HEFNNWSXXWATRW-UHFFFAOYSA-N,12.2,3.34,242,NaN,NaN,NaN,NaN,NaN,NaN,NaN,NaN,NaN,NaN,NaN
Uvaol,HMDB02391,0.915,4,br. s.,NA,0.834,0,[H][C@@]12[C@@H](C)[C@H](C)CC[C@]1(CO)CC[C@]1(C)C2=CC[C@]2([H])[C@@]3(C)CC[C@H](O)C(C)(C)[C@]3([H])CC[C@@]12C,InChIKey=XUARCIYIVXVTAE-ZAPOICBTSA-N,13.56,-6.6,NA,NA,NA,NA,NA,NA,NA,NA,NA,NA,NA,NA
1-Hexadecanol,HMDB03424,0.915,3,t,NA,0.1794,0,CCCCCCCCCCCCCCCCO,InChIKey=BXWNKGSJHAJOGX-UHFFFAOYSA-N,14.58,-3,NaN,NaN,NaN,NaN,NaN,NaN,NaN,NaN,NaN,NaN,NaN,NaN
5a-Androstane-3b.17b-diol,HMDB00493,0.915,4,m,NA,0.0796,0,[H][C@@]12CC[C@H](O)[C@@]1(C)CC[C@@]1([H])[C@@]2([H])CC[C@@]2([H])C[C@@H](O)CC[C@]12C,InChIKey=CBMYJHIOYJEBSB-YSZCXEEOSA-N,1.47,-3.7,NaN,NaN,NaN,NaN,NaN,NaN,NaN,NaN,NaN,NaN,NaN,NaN
5beta-Coprostanol,HMDB00577,0.915,3,d,6.6,0.0997,0,[H][C@@]1(CC[C@@]2([H])[C@]3([H])CC[C@]4([H])C[C@@H](O)CC[C@]4(C)[C@@]3([H])CC[C@]12C)[C@H](C)CCCC(C)C,InChIKey=QYIXCDOBOSTCEI-NWKZBHTNSA-N,4.42,-7.4,NaN,NaN,NaN,NaN,NaN,NaN,NaN,NaN,NaN,NaN,NaN,NaN
Androstanedione,HMDB00899,0.915,3,s,NA,0.9961,0,[H][C@@]12CCC(=O)[C@@]1(C)CC[C@@]1([H])[C@@]2([H])CC[C@@]2([H])CC(=O)CC[C@]12C,InChIKey=RAJWOBJTTGJROA-WZNAKSSCSA-N,1.86,-3,NaN,NaN,NaN,NaN,NaN,NaN,NaN,NaN,NaN,NaN,NaN,NaN
Deoxycholic acid glycine conjugate,HMDB00631,0.915,3,s,NA,1,-1,[H][C@]12CCC3C4CC[C@H]([C@H](C)CCC(=O)NCC(O)=O)[C@@]4(C)[C@@H](O)CC3[C@@]1(C)CC[C@@H](O)C2,InChIKey=WVULKSPCQVQLCU-ZMBDPXIHSA-N,1.86,-6.7,NaN,NaN,NaN,NaN,NaN,NaN,NaN,NaN,NaN,NaN,NaN,NaN
Glycyl-L-leucine,HMDB00759,0.915,4,dd,18.91,0.8209,0,CC(C)C[C@H](NC(=O)CN)C(O)=O,InChIKey=DKEXFJVMVGETOO-LURJTMIESA-N,-0.98,11.18,NaN,NaN,NaN,NaN,NaN,NaN,NaN,NaN,NaN,NaN,NaN,NaN
Glycyl-L-leucine,HMDB00759,0.915,4,dd,6.12,0.8209,0,CC(C)C[C@H](NC(=O)CN)C(O)=O,InChIKey=DKEXFJVMVGETOO-LURJTMIESA-N,-0.98,11.18,NaN,NaN,NaN,NaN,NaN,NaN,NaN,NaN,NaN,NaN,NaN,NaN
Hexanoylglycine,HMDB00701,0.915,17,m,NA,0.8607,-1,CCCCCC(=O)NCC(O)=O,InChIKey=UPCKIPHSXMXJOX-UHFFFAOYSA-N,0.73,-0.95,NaN,1,NaN,NaN,NaN,NaN,NaN,NaN,NaN,NaN,NaN,NaN
Octanol,HMDB01183,0.915,3,t,NA,1,0,CCCCCCCCO,InChIKey=KBPLFHHGFOOTCA-UHFFFAOYSA-N,0.28,-3,NaN,NaN,NaN,NaN,NaN,NaN,NaN,NaN,NaN,NaN,NaN,NaN
Oenanthic ether,HMDB00798,0.915,3,t,NA,0.4582,0,CCCCCCC(=O)OCC,InChIKey=TVQGDYNRXLTQAP-UHFFFAOYSA-N,12.45,1.31,NaN,NaN,NaN,NaN,NaN,NaN,NaN,NaN,NaN,NaN,NaN,NaN
Sulfolithocholic acid,HMDB00907,0.915,1,m,NA,0.0386,-2,[H][C@@]12CC[C@H]([C@H](C)CCC(O)=O)[C@@]1(C)CC[C@@]1([H])[C@@]2([H])CCC2C[C@@H](CC[C@]12C)OS(O)(=O)=O,InChIKey=AXDXVEYHEODSPN-YPLGJCPNSA-N,0.45,9.33,NaN,NaN,NaN,NaN,NaN,NaN,NaN,NaN,NaN,NaN,NaN,NaN
L-Norleucine,HMDB01645,0.92,28,t,7.14,0.2414,0,CCCC[C@H](N)C(O)=O,InChIKey=LRQKBLKVPFOOQJ-YFKPBYRVSA-N,-1.2,-3.2,NaN,NaN,NaN,NaN,NaN,NaN,NaN,NaN,NaN,NaN,NaN,NaN
L-Hexanoylcarnitine,HMDB00756,0.925,3,t,NA,0.1014,0,CCCCCC(=O)O[C@H](CC([O-])=O)C[N+](C)(C)C,InChIKey=VVPRQWTYSNDTEA-LLVKDONJSA-N,4.17,-3.3,0.08,NaN,NaN,NaN,NaN,NaN,NaN,NaN,NaN,NaN,NaN,NaN
Deoxycholic acid,HMDB00626,0.925,3,m,NA,0.7018,-1,[H][C@@]12CC[C@H]([C@H](C)CCC(O)=O)[C@@]1(C)[C@@H](O)C[C@@]1([H])[C@@]2([H])CC[C@]2([H])C[C@H](O)CC[C@]12C,InChIKey=KXGVEGMKQFWNSR-LLQZFEROSA-N,4.73,-2,0.33,NaN,NaN,NaN,NaN,NaN,NaN,NaN,NaN,NaN,NaN,NaN
5alpha-Cholestanol,HMDB00908,0.925,3,d,6.52,0.5965,0,[H][C@@]1(CC[C@@]2([H])[C@]3([H])CC[C@@]4([H])C[C@@H](O)CC[C@]4(C)[C@@]3([H])CC[C@]12C)[C@H](C)CCCC(C)C,InChIKey=QYIXCDOBOSTCEI-QCYZZNICSA-N,4.05,-3,9.26,NaN,NaN,NaN,NaN,NaN,NaN,NaN,NaN,NaN,NaN,NaN
Beta-Sitosterol,HMDB00852,0.925,6,m,NA,0.0259,0,[H][C@@]1(CC[C@@]2([H])[C@]3([H])CC=C4C[C@@H](O)CC[C@]4(C)[C@@]3([H])CC[C@]12C)[C@H](C)CC[C@@H](CC)C(C)C,InChIKey=KZJWDPNRJALLNS-VJSFXXLFSA-N,-33,-2,9.744,NaN,NaN,NaN,NaN,NaN,NaN,NaN,NaN,NaN,NaN,NaN
Cholesterol,HMDB00067,0.925,6,d,6.54,0.5003,0,[H][C@@]12CC[C@H]([C@H](C)CCCC(C)C)[C@@]1(C)CC[C@@]1([H])[C@@]2([H])CC=C2CC(O)CC[C@]12C,InChIKey=HVYWMOMLDIMFJA-FNOPAARDSA-N,3.17,-0.54,3567.92,NaN,NaN,NA,6.31,NaN,NaN,NaN,NaN,NaN,NaN,NaN
5alpha-Cholestanone,HMDB00871,0.925,3,d,6.5,0.5117,0,[H][C@@]1(CC[C@@]2([H])[C@]3([H])CC[C@@]4([H])CC(=O)CC[C@]4(C)[C@@]3([H])CC[C@]12C)[C@H](C)CCCC(C)C,InChIKey=PESKGJQREUXSRR-UXIWKSIVSA-N,1.78,4.8,NA,NA,NA,NA,NA,NA,NA,NA,NA,NA,NA,NA
16b-Hydroxyestradiol,HMDB00347,0.925,1,m,NA,0.042,0,[H][C@@]12C[C@H](O)[C@H](O)[C@@]1(C)CC[C@]1([H])C3=C(CC[C@@]21[H])C=C(O)C=C3,InChIKey=PROQIPRRNZUXQM-ZMSHIADSSA-N,11.47,-3.8,NaN,NaN,NaN,NaN,NaN,NaN,NaN,NaN,NaN,NaN,NaN,NaN
17-Hydroxyprogesterone,HMDB00374,0.925,3,m,NA,0.0544,0,[H][C@@]12CC[C@](O)(C(C)=O)[C@@]1(C)CC[C@@]1([H])[C@@]2([H])CCC2=CC(=O)CC[C@]12C,InChIKey=DBPWSSGDRRHUNT-CEGNMAFCSA-N,7.36,-1.4,NaN,0.0013,NaN,NA,NaN,NaN,NaN,NaN,NaN,NaN,NaN,NaN
2-Isopropylmalic acid,HMDB00402,0.925,3,d,6.92,0.4538,-2,CC(C)[C@@](O)(CC(O)=O)C(O)=O,InChIKey=BITYXLXUCSKTJS-ZETCQYMHSA-N,5.02,-6.8,NaN,NaN,NaN,NaN,NaN,NaN,NaN,NaN,NaN,NaN,NaN,NaN
Butanal,HMDB03543,0.925,6,t,NA,0.2516,0,CCCC=O,InChIKey=ZTQSAGDEMFDKMZ-UHFFFAOYSA-N,14.58,-3,NaN,NaN,NaN,NaN,NaN,NaN,NaN,NaN,NaN,NaN,NaN,NaN
CE(16:1(9Z)),HMDB00658,0.925,26,m,NA,0.2828,0,CCCCCC\C=C/CCCCCCCC(=O)OC1CC[C@@]2(C)C(=CCC3C4CC[C@H]([C@H](C)CCCC(C)C)[C@@]4(C)CCC23)C1,InChIKey=HODJWNWCVNUPAQ-FSAOOAOSSA-N,1.87,10,NaN,NaN,NaN,NaN,NaN,NaN,NaN,NaN,NaN,NaN,NaN,NaN
Ergocalciferol,HMDB00900,0.925,3,d,6.88,0.0741,0,CC(C)[C@@H](C)\C=C\[C@@H](C)[C@H]1CC[C@@]2([H])\C(CCC[C@]12C)=C\C=C1\C[C@@H](O)CCC1=C,InChIKey=MECHNRXZTMCUDQ-RKHKHRCZSA-N,3.25,-6.3,NaN,NaN,NaN,0.008,NaN,NaN,NaN,NaN,NaN,NaN,NaN,NaN
Glycyrrhetinic acid,HMDB11628,0.925,3,s,NA,0.7943,-1,CC1(C)[C@@H](O)CC[C@@]2(C)C1CC[C@]1(C)C2C(=O)C=C2C3C[C@](C)(CC[C@]3(C)CC[C@@]12C)C(O)=O,InChIKey=MPDGHEJMBKOTSU-WFJWTYAKSA-N,1.86,-3,NaN,NaN,NaN,NaN,NaN,NaN,NaN,NaN,NaN,NaN,NaN,NaN
Isocaproic acid,HMDB00689,0.925,6,d,6.5,1,-1,CC(C)CCC(O)=O,InChIKey=FGKJLKRYENPLQH-UHFFFAOYSA-N,4.15,0.084,NaN,NaN,NaN,43.65,NaN,NaN,NaN,NaN,NaN,NaN,NaN,NaN
N-Butyrylglycine,HMDB00808,0.925,1,t,7.39,1,-1,CCCC(=O)NCC(O)=O,InChIKey=WPSSBBPLVMTKRN-UHFFFAOYSA-N,1.23,4.77,NaN,NaN,NaN,NaN,NaN,NaN,NaN,NaN,NaN,NaN,NaN,NaN
Taurodeoxycholic acid,HMDB00896,0.925,3,s,NA,1,-1,[H][C@@]1(CC[C@@]2([H])[C@]3([H])CC[C@]4([H])C[C@H](O)CC[C@]4(C)[C@@]3([H])C[C@H](O)[C@]12C)[C@H](C)CCC(=O)NCCS(O)(=O)=O,InChIKey=AWDRATDZQPNJFN-VAYUFCLWSA-N,1.86,-6.7,NaN,NaN,NaN,NaN,NaN,NaN,NaN,NaN,NaN,NaN,NaN,NaN
Chenodeoxycholic acid,HMDB00518,0.929,3,s,NA,1,-1,[H][C@@]1(CC[C@@]2([H])[C@]3([H])[C@H](O)C[C@]4([H])C[C@H](O)CC[C@]4(C)[C@@]3([H])CC[C@]12C)[C@H](C)CCC(O)=O,InChIKey=RUDATBOHQWOJDD-BSWAIDMHSA-N,2.15,-4.1,1.165,NaN,NaN,NaN,NaN,NaN,NaN,NaN,NaN,NaN,NaN,NaN
Methylglutaric acid,HMDB00752,0.929,3,d,6.31,1,-2,CC(CC(O)=O)CC(O)=O,InChIKey=XJMMNTGIMDZPMU-UHFFFAOYSA-N,4.48,4.98,NaN,1.6,NaN,NaN,NaN,NaN,NaN,NaN,NaN,NaN,NaN,NaN
Androstenedione,HMDB00053,0.935,11,s,NA,1,0,[H][C@@]12CCC(=O)[C@@]1(C)CC[C@@]1([H])[C@@]2([H])CCC2=CC(=O)CC[C@]12C,InChIKey=AEMFNILZOJDQLW-QAGGRKNESA-N,18.2,-7.4,0.0059,0.0068,NaN,NaN,NaN,NaN,NaN,NaN,NaN,NaN,NaN,NaN
Vitamin D3,HMDB00876,0.935,2,d,6.38,0.1052,0,CC(C)CCC[C@@H](C)[C@H]1CCC2\C(CCC[C@]12C)=C\C=C1\C[C@@H](O)CCC1=C,InChIKey=QYSXJUFSXHHAJI-QWSSABAFSA-N,1.1,-3.6,0.03705,NaN,NaN,0.006,NaN,NaN,NaN,NaN,NaN,NaN,NaN,NaN
Menthol,HMDB03352,0.935,3,d,6.6,0.8693,0,CC(C)[C@@H]1CC[C@@H](C)C[C@H]1O,InChIKey=NOOLISFMXDJSKH-KXUCPTDWSA-N,14.58,-3,0.064,NaN,NaN,NaN,NaN,NaN,NaN,NaN,NaN,NaN,NaN,NaN
Lithocholic acid,HMDB00761,0.935,4,s,NA,1,-1,[H][C@@]12CC[C@H]([C@H](C)CCC(O)=O)[C@@]1(C)CC[C@@]1([H])[C@@]2([H])CCC2C[C@H](O)CC[C@]12C,InChIKey=SMEROWZSTRWXGI-YPLGJCPNSA-N,1.77,-1.8,0.33,NaN,NaN,NaN,NaN,NaN,NaN,NaN,NaN,NaN,NaN,NaN
Taurocholic acid,HMDB00036,0.935,3,d,6.49,0.4988,-1,[H][C@@]12C[C@H](O)CCC1(C)C1C[C@H](O)C3(C)C(CCC3C1[C@H](O)C2)C(C)CCC(=O)NCCS(O)(=O)=O,InChIKey=WBWWGRHZICKQGZ-BKXUXKPJSA-N,19.03,-2.8,0.38,NaN,NaN,NaN,NaN,NaN,NaN,NaN,NaN,NaN,NaN,NaN
Lathosterol,HMDB01170,0.935,2,d,6.55,0.0308,0,[H][C@@]1(CC[C@@]2([H])C3=CC[C@@]4([H])C[C@@H](O)CC[C@]4(C)[C@@]3([H])CC[C@]12C)[C@H](C)CCCC(C)C,InChIKey=IZVFFXVYBHFIHY-SKCNUYALSA-N,1.57,-2.4,3.905,NaN,NaN,NaN,NaN,NaN,NaN,NaN,NaN,NaN,NaN,NaN
Pantothenic acid,HMDB00210,0.935,3,s,NA,0.9358,-1,CC(C)(CO)C(O)C(=O)NCCC(O)=O,InChIKey=GHOKWGTUZJEAQD-UHFFFAOYSA-N,1.74,-3,4.91,NaN,NaN,0.433,3.25,NaN,NaN,NaN,NaN,NaN,NaN,NaN
CE(16:0),HMDB00885,0.935,3,t,NA,0.0867,0,[H][C@@]1(CC[C@@]2([H])[C@]3([H])CC=C4C[C@H](CC[C@]4(C)[C@@]3([H])CC[C@]12C)OC(=O)CCCCCCCCCCCCCCC)[C@H](C)CCCC(C)C,InChIKey=BBJQPKLGPMQWBU-JADYGXMDSA-N,1.87,10,297.73,NaN,NaN,NaN,NaN,NaN,NaN,NaN,NaN,NaN,NaN,NaN
17-alpha.20-alpha-Dihydroxypregn-4-en-3-one,HMDB11653,0.935,1,m,NA,0.0348,0,[H][C@@]12CC[C@](O)([C@H](C)O)[C@@]1(C)CC[C@@]1([H])[C@@]2([H])CCC2=CC(=O)CC[C@]12C,InChIKey=MASCESDECGBIBB-HNXXTFFGSA-N,1.86,-3,NA,NA,NA,NA,NA,NA,NA,NA,NA,NA,NA,NA
Danazol,HMDB02835,0.935,1,m,NA,0.0533,0,[H][C@@]12CC[C@@](O)(C#C)[C@@]1(C)CC[C@@]1([H])[C@@]2([H])CCC2=CC3=C(C[C@]12C)C=NO3,InChIKey=POZRVZJJTULAOH-LHZXLZLDSA-N,2.89,-3.5,NA,NA,NA,NA,NA,NA,NA,NA,NA,NA,NA,NA
Isovalerylalanine,HMDB00747,0.935,6,dd,11.40 6.65,0.8807,-1,CC(C)CC(=O)N[C@@H](C)C(O)=O,InChIKey=OJPSNARFDYTAEN-LURJTMIESA-N,4.65,-0.91,NA,NA,NA,NA,NA,NA,NA,NA,NA,NA,NA,NA
CE(18:2(9Z.12Z)),HMDB00610,0.935,4,m,NA,0.4714,0,CCCCC\C=C/C\C=C/CCCCCCCC(=O)O[C@H]1CC[C@@]2(C)C(=CC[C@@]3([H])[C@]4([H])CC[C@]([H])([C@H](C)CCCC(C)C)[C@@]4(C)CC[C@]23[H])C1,InChIKey=NAACPBBQTFFYQB-LJAITQKLSA-N,1.87,10,NaN,NaN,NaN,NaN,NaN,NaN,NaN,NaN,NaN,NaN,NaN,NaN
Cholestenone,HMDB00921,0.935,3,d,6.41,0.5538,0,[H][C@@]12CC[C@H]([C@H](C)CCCC(C)C)[C@@]1(C)CC[C@@]1([H])[C@@]2([H])CCC2=CC(=O)CC[C@]12C,InChIKey=NYOXRYYXRWJDKP-GYKMGIIDSA-N,0.83,7.72,NaN,NaN,NaN,NaN,NaN,NaN,NaN,NaN,NaN,NaN,NaN,NaN
Hydroxyisocaproic acid,HMDB00746,0.935,22,d,2.53,0.979,-1,CC(C)C[C@H](O)C(O)=O,InChIKey=LVRFTAZAXQPQHI-YFKPBYRVSA-N,18.3,4.69,NaN,NaN,NaN,6.17,NaN,NaN,NaN,NaN,NaN,NaN,NaN,NaN
Hyodeoxycholic acid,HMDB00733,0.935,3,s,NA,1,-1,[H][C@@]12CC[C@H]([C@H](C)CCC(O)=O)[C@@]1(C)CC[C@@]1([H])[C@@]2([H])C[C@H](O)C2C[C@H](O)CC[C@]12C,InChIKey=DGABKXLVXPYZII-CDONHWFASA-N,5.01,-3.2,NaN,NaN,NaN,NaN,NaN,NaN,NaN,NaN,NaN,NaN,NaN,NaN
Isovalerylglycine,HMDB00678,0.94,5,d,6.67,1,-1,CC(C)CC(=O)NCC(O)=O,InChIKey=ZRQXMKMBBMNNQC-UHFFFAOYSA-N,2.84,4.58,NaN,NaN,NaN,NaN,NaN,NaN,NaN,NaN,NaN,NaN,NaN,NaN
L-Isoleucine,HMDB00172,0.941,4,t,7.414,NA,0,CC[C@H](C)[C@H](N)C(O)=O,InChIKey=AGPKZVBTJJNPAG-WHFBIAKZSA-N,1.7,9.29,61.35,1.787933333,NaN,NA,7.134,NaN,NaN,NaN,NaN,NaN,NaN,NaN
Chenodeoxycholic acid,HMDB00518,0.944,3,d,6.56,0.4579,-1,[H][C@@]1(CC[C@@]2([H])[C@]3([H])[C@H](O)C[C@]4([H])C[C@H](O)CC[C@]4(C)[C@@]3([H])CC[C@]12C)[C@H](C)CCC(O)=O,InChIKey=RUDATBOHQWOJDD-BSWAIDMHSA-N,2.15,-4.1,1.165,NaN,NaN,NaN,NaN,NaN,NaN,NaN,NaN,NaN,NaN,NaN
7-Ketocholesterol,HMDB00501,0.945,6,d,6.54,0.4318,0,[H][C@@]12CCC([C@H](C)CCCC(C)C)[C@@]1(C)CC[C@@]1([H])[C@@]2([H])C(=O)C=C2CC(O)CC[C@]12C,InChIKey=YIKKMWSQVKJCOP-QJFKPLHKSA-N,4.65,-6.7,0.056333333,NaN,NaN,NaN,NaN,NaN,NaN,NaN,NaN,NaN,NaN,NaN
Glycocholic acid,HMDB00138,0.945,3,t,7.39,1,-1,[H][C@@]12CC[C@H]([C@H](C)CCC(=O)NCC(O)=O)[C@@]1(C)[C@@H](O)C[C@@]1([H])[C@@]2([H])[C@H](O)CC2C[C@H](O)CC[C@]12C,InChIKey=RFDAIACWWDREDC-MZMBZMQMSA-N,4.55,8.85,0.06,0.42,NaN,NaN,NaN,NaN,NaN,NaN,NaN,NaN,NaN,NaN
Menthol,HMDB03352,0.945,3,d,7.04,1,0,CC(C)[C@@H]1CC[C@@H](C)C[C@H]1O,InChIKey=NOOLISFMXDJSKH-KXUCPTDWSA-N,14.58,-3,0.064,NaN,NaN,NaN,NaN,NaN,NaN,NaN,NaN,NaN,NaN,NaN
Lithocholic acid,HMDB00761,0.945,6,d,NA,1,-1,[H][C@@]12CC[C@H]([C@H](C)CCC(O)=O)[C@@]1(C)CC[C@@]1([H])[C@@]2([H])CCC2C[C@H](O)CC[C@]12C,InChIKey=SMEROWZSTRWXGI-YPLGJCPNSA-N,1.77,-1.8,0.33,NaN,NaN,NaN,NaN,NaN,NaN,NaN,NaN,NaN,NaN,NaN
Ketoleucine,HMDB00695,0.945,5,d,6.68,1,-1,CC(C)CC(=O)C(O)=O,InChIKey=BKAJNAXTPSGJCU-UHFFFAOYSA-N,1.72,-0.77,30.75,NaN,NaN,NaN,5,NaN,NaN,NaN,NaN,NaN,NaN,NaN
2.3-Dihydroxyvaleric acid,HMDB00421,0.945,3,t,7.46,1,-1,CCC(O)C(O)C(O)=O,InChIKey=CJXCLBPFKGZXJP-UHFFFAOYSA-N,3.28,-3,NA,NA,NA,NA,NA,NA,NA,NA,NA,NA,NA,NA
Isovalerylglutamic acid,HMDB00726,0.945,7,t,7.14,1,-2,CC(C)CC(=O)N[C@@H](CCC(O)=O)C(O)=O,InChIKey=HCVIJONZMYVLAW-ZETCQYMHSA-N,1.12,4.95,NA,NA,NA,NA,NA,NA,NA,NA,NA,NA,NA,NA
Uvaol,HMDB02391,0.945,3,s,NA,0.5808,0,[H][C@@]12[C@@H](C)[C@H](C)CC[C@]1(CO)CC[C@]1(C)C2=CC[C@]2([H])[C@@]3(C)CC[C@H](O)C(C)(C)[C@]3([H])CC[C@@]12C,InChIKey=XUARCIYIVXVTAE-ZAPOICBTSA-N,13.56,-6.6,NA,NA,NA,NA,NA,NA,NA,NA,NA,NA,NA,NA