Metabolite,HMDB Name,Shift (ppm),Hs,Type,J (Hz),Height,Physiological Charge,SMILES,InChlKey,pKa (Strongest Acidic),pKa (Strongest Basic),Blood,Urine,Feces,Saliva,Cerebrospinal Fluid (CSF),Amniotic Fluid,Aqueous Humour,Ascites Fluid,Breast Milk,Lymph,Sweat,Tears
Inosine triphosphate,HMDB00189,4.615,1,m,NA,0.1379,-3,O[C@@H]1[C@@H](COP(O)(=O)OP(O)(=O)OP(O)(O)=O)O[C@H]([C@@H]1O)N1C=NC2=C1N=CN=C2O,InChIKey=HAEJPQIATWHALX-KQYNXXCUSA-N,1.51,-3.7,NA,NA,NA,NA,NA,NA,NA,NA,NA,NA,NA,NA
1-Methylinosine,HMDB02721,4.625,0,t,NA,0.0315,0,CN1C=NC2=C(N=CN2[C@@H]2O[C@H](CO)[C@@H](O)[C@H]2O)C1=O,InChIKey=WJNGQIYEQLPJMN-IOSLPCCCSA-N,18.21,9.04,0.06345,1.13,NaN,NaN,NaN,NaN,NaN,NaN,NaN,NaN,NaN,NaN
Biocytin,HMDB03134,4.625,2,dd,7.69 5.08,0.1699,0,[H][C@]12CS[C@@H](CCCCC(=O)NCCCC[C@H](N)C(O)=O)[C@@]1([H])NC(=O)N2,InChIKey=BAQMYDQNMFBZNA-MNXVOIDGSA-N,14.58,-3,NA,NA,NA,NA,NA,NA,NA,NA,NA,NA,NA,NA
Nicotinamide ribotide,HMDB00229,4.625,1,m,NA,0.4709,-1,NC(=O)C1=CC=C[N+](=C1)[C@@H]1O[C@H](COP(O)([O-])=O)[C@@H](O)[C@H]1O,InChIKey=DAYLJWODMCOQEW-TURQNECASA-N,14.55,-1,NaN,66.67,NaN,NaN,NaN,NaN,NaN,NaN,NaN,NaN,NaN,NaN
Deoxyguanosine,HMDB00085,4.63,1,ddd,6.20 3.35 3.18,0.2523,0,NC1=NC2=C(N=CN2[C@H]2C[C@H](O)[C@@H](CO)O2)C(=O)N1,InChIKey=YKBGVTZYEHREMT-KVQBGUIXSA-N,10.16,-0.04,NaN,1,NaN,NaN,NaN,NaN,NaN,NaN,NaN,NaN,NaN,NaN
Levoglucosan,HMDB00640,4.633,1,dd,5.82 1.05,0.2141,0,[H][C@@]12OC[C@@H](O1)[C@@H](O)[C@H](O)[C@H]2O,InChIKey=TWNIBLMWSKIRAT-VFUOTHLCSA-N,4.15,-7,NaN,NaN,NaN,NaN,NaN,NaN,NaN,NaN,NaN,NaN,NaN,NaN
Adenosine triphosphate,HMDB00538,4.634,1,t,5.39,0.0118,-3,NC1=NC=NC2=C1N=CN2[C@@H]1O[C@H](COP(O)(=O)OP(O)(=O)OP(O)(O)=O)[C@@H](O)[C@H]1O,InChIKey=ZKHQWZAMYRWXGA-KQYNXXCUSA-N,2.83,-0.58,2271,NaN,NaN,0.47,1.85,NaN,NaN,NaN,NaN,NaN,NaN,NaN
Aldosterone,HMDB00037,4.635,0,s,NA,0.0114,0,C[C@]12CCC(=O)C=C1CCC1C3CC[C@H](C(=O)CO)[C@]3(C[C@H](O)C21)C=O,InChIKey=PQSUYGKTWSAVDQ-SRPWZAMTSA-N,4.03,-3,6.80E-05,0.01,NaN,NA,NaN,NaN,NaN,NaN,NaN,NaN,NaN,NaN
CE(16:0),HMDB00885,4.635,1,m,NA,NA,0,[H][C@@]1(CC[C@@]2([H])[C@]3([H])CC=C4C[C@H](CC[C@]4(C)[C@@]3([H])CC[C@]12C)OC(=O)CCCCCCCCCCCCCCC)[C@H](C)CCCC(C)C,InChIKey=BBJQPKLGPMQWBU-JADYGXMDSA-N,1.87,10,297.73,NaN,NaN,NaN,NaN,NaN,NaN,NaN,NaN,NaN,NaN,NaN
Hydroxycobalamin,HMDB02308,4.635,1,br. s.,NA,0.0061,2,[Co++].O.OC[C@H]1O[C@@]([H])([C@H](O)[C@]1([H])OP(=O)([O-])O[C@H](C)CNC(=O)CC[C@]1(C)[C@@H](CC(=O)N)[C@@]2([H])[N-]\C1=C(C)/C1=N/C(=C\C3=N\C(=C(C)/C4=N[C@]2(C)[C@@](C)(CC(=O)N)[C@@H]4CCC(=O)N)\[C@@](C)(CC(=O)N)[C@@H]3CCC(=O)N)/C(C)(C)[C@@H]1CCC(=O)N)N1C=NC2=C1C=C(C)C(C)=C2,InChIKey=DQOCFCZRZOAIBN-WZHZPDAFSA-L,2.45,-1.9,NA,NA,NA,NA,NA,NA,NA,NA,NA,NA,NA,NA
CE(18:2(9Z.12Z)),HMDB00610,4.635,1,m,NA,0.0066,0,CCCCC\C=C/C\C=C/CCCCCCCC(=O)O[C@H]1CC[C@@]2(C)C(=CC[C@@]3([H])[C@]4([H])CC[C@]([H])([C@H](C)CCCC(C)C)[C@@]4(C)CC[C@]23[H])C1,InChIKey=NAACPBBQTFFYQB-LJAITQKLSA-N,1.87,10,NaN,NaN,NaN,NaN,NaN,NaN,NaN,NaN,NaN,NaN,NaN,NaN
Alpha-D-Glucose,HMDB03345,4.645,1,d,7.98,0.6985,0,OC[C@H]1O[C@H](O)[C@H](O)[C@@H](O)[C@@H]1O,InChIKey=WQZGKKKJIJFFOK-DVKNGEFBSA-N,14.58,-3,NaN,NaN,NaN,NaN,NaN,NaN,NaN,NaN,NaN,NaN,NaN,NaN
Gamma-Caprolactone,HMDB03843,4.645,1,m,NA,0.0743,0,CCC1CCC(=O)O1,InChIKey=JBFHTYHTHYHCDJ-UHFFFAOYSA-N,14.58,-3,NaN,NaN,NaN,NaN,NaN,NaN,NaN,NaN,NaN,NaN,NaN,NaN
D-Glucose,HMDB00122,4.649,8,d,7.957,NA,0,OC[C@H]1OC(O)[C@H](O)[C@@H](O)[C@@H]1O,InChIKey=WQZGKKKJIJFFOK-GASJEMHNSA-N,1.89,-6.6,4935.2875,17.15333333,NaN,NA,2340,NaN,NaN,NaN,NaN,NaN,NaN,NaN
Glucose 6-phosphate,HMDB01401,4.655,1,d,7.99,0.7267,-2,OC1O[C@H](COP(O)(O)=O)[C@@H](O)[C@H](O)[C@H]1O,InChIKey=NBSCHQHZLSJFNQ-GASJEMHNSA-N,1.86,4.95,29.1,NaN,NaN,NaN,NaN,NaN,NaN,NaN,NaN,NaN,NaN,NaN
D-Glucuronic acid,HMDB00127,4.663,1,d,7.97,0.0308,-1,O[C@H]1O[C@@H]([C@@H](O)[C@H](O)[C@H]1O)C(O)=O,InChIKey=AEMOLEFTQBMNLQ-WAXACMCWSA-N,3.07,-3,NaN,36.07,NaN,NaN,NaN,NaN,NaN,NaN,NaN,NaN,NaN,NaN
Lansoprazole,HMDB05008,4.665,2,s,NA,0.0029,0,CC1=C(OCC(F)(F)F)C=CN=C1CS(=O)C1=NC2=CC=CC=C2N1,InChIKey=MJIHNNLFOKEZEW-UHFFFAOYSA-N,1.87,10,NA,NA,NA,NA,NA,NA,NA,NA,NA,NA,NA,NA
NADP,HMDB00217,4.665,1,m,NA,0.1279,-3,NC(=O)C1=C[N+](=CC=C1)[C@@H]1O[C@H](CO[P@](O)(=O)O[P@](O)(=O)OC[C@H]2O[C@H]([C@H](OP(O)(O)=O)[C@@H]2O)N2C=NC3=C(N)N=CN=C23)[C@@H](O)[C@H]1O,InChIKey=XJLXINKUBYWONI-NNYOXOHSSA-O,4.48,-2.8,NA,NA,NA,NA,NA,NA,NA,NA,NA,NA,NA,NA
Deoxyadenosine,HMDB00101,4.665,1,dt,6.08 3.05,0.1946,0,NC1=NC=NC2=C1N=CN2[C@H]1C[C@H](O)[C@@H](CO)O1,InChIKey=OLXZPDWKRNYJJZ-RRKCRQDMSA-N,1.86,-6.7,NaN,0.22,NaN,NaN,NaN,NaN,NaN,NaN,NaN,NaN,NaN,NaN
Maltotetraose,HMDB01296,4.665,1,d,7.92,0.3376,0,OC[C@H]1O[C@H](O[C@H]2[C@H](O)[C@@H](O)[C@@H](O[C@H]3[C@H](O)[C@@H](O)[C@@H](O[C@H]4[C@H](O)[C@@H](O)C(O)O[C@@H]4CO)O[C@@H]3CO)O[C@@H]2CO)[C@H](O)[C@@H](O)[C@@H]1O,InChIKey=LUEWUZLMQUOBSB-AYQJAVFRSA-N,3.23,5.58,NaN,NaN,NaN,NaN,NaN,NaN,NaN,NaN,NaN,NaN,NaN,NaN
Nicotinamide ribotide,HMDB00229,4.665,1,t,5.34,0.3983,-1,NC(=O)C1=CC=C[N+](=C1)[C@@H]1O[C@H](COP(O)([O-])=O)[C@@H](O)[C@H]1O,InChIKey=DAYLJWODMCOQEW-TURQNECASA-N,14.55,-1,NaN,66.67,NaN,NaN,NaN,NaN,NaN,NaN,NaN,NaN,NaN,NaN
Deoxyinosine,HMDB00071,4.675,1,m,NA,0.0428,0,OC[C@H]1O[C@H](C[C@@H]1O)N1C=NC2=C1N=CN=C2O,InChIKey=VGONTNSXDCQUGY-RRKCRQDMSA-N,3.53,-4.9,NaN,NA,NaN,NaN,NaN,NaN,NaN,NaN,NaN,NaN,NaN,NaN
Amlodipine,HMDB05018,4.685,2,dd,NA,0.1626,1,CCOC(=O)C1=C(COCCN)NC(C)=C(C1C1=CC=CC=C1Cl)C(=O)OC,InChIKey=HTIQEAQVCYTUBX-UHFFFAOYSA-N,1.87,10,NA,NA,NA,NA,NA,NA,NA,NA,NA,NA,NA,NA
Cellobiose,HMDB00055,4.685,2,d,7.91,0.0924,0,OC[C@H]1O[C@@H](O[C@H]2[C@H](O)[C@@H](O)[C@H](O)O[C@@H]2CO)[C@H](O)[C@@H](O)[C@@H]1O,InChIKey=GUBGYTABKSRVRQ-QRZGKKJRSA-N,11.7,1.83,NA,NA,NA,NA,NA,NA,NA,NA,NA,NA,NA,NA
Ondansetron,HMDB05035,4.685,0,dd,NA,2.00E-04,1,CN1C2=C(C3=CC=CC=C13)C(=O)C(CN1C=CN=C1C)CC2,InChIKey=FELGMEQIXOGIFQ-UHFFFAOYSA-N,1.87,10,NA,NA,NA,NA,NA,NA,NA,NA,NA,NA,NA,NA
Isomaltose,HMDB02923,4.685,1,d,7.98,0.6299,0,OC[C@H]1O[C@H](OC[C@H]2OC(O)[C@H](O)[C@@H](O)[C@@H]2O)[C@H](O)[C@@H](O)[C@@H]1O,InChIKey=DLRVVLDZNNYCBX-RTPHMHGBSA-N,9.91,-1.4,NaN,NaN,NaN,NaN,NaN,NaN,NaN,NaN,NaN,NaN,NaN,NaN
Ethenodeoxyadenosine,HMDB01786,4.695,1,m,NA,0.1641,0,OC[C@H]1O[C@H](C[C@@H]1O)N1C=NC2=C1N=CN1C=CN=C21,InChIKey=XQQIMTUYVDUWKJ-DJLDLDEBSA-N,7.67,4.94,NA,NA,NA,NA,NA,NA,NA,NA,NA,NA,NA,NA
N-Acetylgalactosamine 4-sulphate,HMDB00781,4.695,1,d,1.98,0.0713,-1,CC(=O)N[C@H]1[C@H](O)O[C@H](CO)[C@H](OS(O)(=O)=O)[C@@H]1O,InChIKey=WHCJUIFHMJFEFZ-UIAUGNHASA-N,4.09,9.31,NaN,NaN,NaN,NaN,NaN,NaN,NaN,NaN,NaN,NaN,NaN,NaN
Xanthosine,HMDB00299,4.705,3,t,5.79,0.0602,0,OC[C@H]1O[C@H]([C@H](O)[C@@H]1O)N1C=NC2=C1N=C(O)N=C2O,InChIKey=UBORTCNDUKBEOP-UUOKFMHZSA-N,4.51,-0.61,5.08,NaN,NaN,NaN,NaN,NaN,NaN,NaN,NaN,NaN,NaN,NaN
D-Limonene,HMDB03375,4.715,0,s,NA,-0.0074,0,CC(=C)[C@H]1CCC(C)=CC1,InChIKey=XMGQYMWWDOXHJM-SNVBAGLBSA-N,14.58,-3,0.19,NaN,NaN,NaN,NaN,NaN,NaN,NaN,NaN,NaN,NaN,NaN
(+)-Limonene,HMDB04321,4.715,0,s,NA,8.00E-04,0,CC(=C)[C@@H]1CCC(C)=CC1,InChIKey=XMGQYMWWDOXHJM-JTQLQIEISA-N,1.86,-6.7,NaN,NaN,NaN,NaN,NaN,NaN,NaN,NaN,NaN,NaN,NaN,NaN
Beta-N-Acetylglucosamine,HMDB00803,4.715,0,d,NA,0.0477,0,CC(=O)N[C@H]1[C@H](O)O[C@H](CO)[C@@H](O)[C@@H]1O,InChIKey=OVRNDRQMDRJTHS-FMDGEEDCSA-N,1.16,8.69,NaN,NaN,NaN,NaN,NaN,NaN,NaN,NaN,NaN,NaN,NaN,NaN
Perillyl alcohol,HMDB03634,4.725,2,m,NA,0.0699,0,CC(=C)C1CCC(CO)=CC1,InChIKey=NDTYTMIUWGWIMO-UHFFFAOYSA-N,14.58,-3,NaN,NaN,NaN,NaN,NaN,NaN,NaN,NaN,NaN,NaN,NaN,NaN
Levofloxacin,HMDB01929,4.735,0,m,NA,0.0084,-1,C[C@H]1COC2=C(N3CCN(C)CC3)C(F)=CC3=C2N1C=C(C(O)=O)C3=O,InChIKey=GSDSWSVVBLHKDQ-JTQLQIEISA-N,3.51,-6.3,0.135,NaN,NaN,NaN,NaN,NaN,NaN,NaN,NaN,NaN,NaN,NaN
Benzyl alcohol,HMDB03119,4.735,1,s,NA,0.0728,0,OCC1=CC=CC=C1,InChIKey=WVDDGKGOMKODPV-UHFFFAOYSA-N,14.58,-3,NaN,NaN,NaN,NaN,NaN,NaN,NaN,NaN,NaN,NaN,NaN,NaN
Pyridoxamine,HMDB01431,4.735,1,s,NA,0.0143,1,CC1=C(O)C(CN)=C(CO)C=N1,InChIKey=NHZMQXZHNVQTQA-UHFFFAOYSA-N,3.73,10.21,NaN,NaN,NaN,NaN,NaN,NaN,NaN,NaN,NaN,NaN,NaN,NaN
S-Adenosylhomocysteine,HMDB00939,4.735,0,t,NA,0.0147,0,N[C@@H](CCSC[C@H]1O[C@H]([C@H](O)[C@@H]1O)N1C=NC2=C(N)N=CN=C12)C(O)=O,InChIKey=ZJUKTBDSGOFHSH-WFMPWKQPSA-N,9.43,1.41,NaN,NaN,NaN,NaN,0.01,NaN,NaN,NaN,NaN,NaN,NaN,NaN
Pyridoxine,HMDB00239,4.745,1,s,NA,0.117,0,CC1=NC=C(CO)C(CO)=C1O,InChIKey=LXNHXLLTXMVWPM-UHFFFAOYSA-N,-2.1,-1.9,0.025,NA,NaN,NaN,NaN,NaN,NaN,NaN,NaN,NaN,NaN,NaN
Azythromycin,HMDB01916,4.745,0,dd,NA,0.0016,2,CC[C@@H]1OC(=O)[C@H](C)[C@@H](O[C@@H]2C[C@](C)(OC)[C@H](O)[C@@H](C)O2)[C@@H](C)[C@H](O[C@H]2O[C@@H](C)C[C@H]([C@@H]2O)N(C)C)[C@@](C)(O)C[C@H](C)CN(C)[C@@H](C)[C@@H](O)[C@]1(C)O,InChIKey=MQTOSJVFKKJCRP-HHZDEWPHSA-N,3.84,1.99,NA,NA,NA,NA,NA,NA,NA,NA,NA,NA,NA,NA
Orotidine,HMDB00788,4.745,1,m,NA,0.1704,-1,OC[C@H]1O[C@H]([C@H](O)[C@@H]1O)N1C(=O)NC(=O)C=C1C(O)=O,InChIKey=FKCRAVPPBFWEJD-XVFCMESISA-N,12.5,-3.6,NaN,NaN,NaN,NaN,NaN,NaN,NaN,NaN,NaN,NaN,NaN,NaN
N-Acetylaspartylglutamic acid,HMDB01067,4.755,1,dd,NA,0.0213,-3,CC(=O)NC(CC(O)=O)C(=O)NC(CCC(O)=O)C(O)=O,InChIKey=OPVPGKGADVGKTG-UHFFFAOYSA-N,0.83,4.95,4.89,NaN,NaN,NaN,3.375,NaN,NaN,NaN,NaN,NaN,NaN,NaN
D-Glucurono-6.3-lactone,HMDB06355,4.755,0,d,6.33,0.0731,0,O[C@@H]1O[C@@H]2[C@@H](O)C(=O)O[C@@H]2[C@H]1O,InChIKey=OGLCQHRZUSEXNB-WHDMSYDLSA-N,2.95,-3.4,NA,NA,NA,NA,NA,NA,NA,NA,NA,NA,NA,NA
1-Methyladenosine,HMDB03331,4.775,1,t,5.23,0.1088,0,CN1C=NC2=C(N=CN2[C@@H]2O[C@H](CO)[C@@H](O)[C@H]2O)C1=N,InChIKey=GFYLSDSUCHVORB-IOSLPCCCSA-N,14.58,-3,0.1,8.716666667,NaN,NaN,NaN,NaN,NaN,NaN,NaN,NaN,NaN,NaN
Salicin,HMDB03546,4.775,0,d,NA,0.0271,0,OC[C@H]1O[C@@H](OC2=C(CO)C=CC=C2)[C@H](O)[C@@H](O)[C@@H]1O,InChIKey=NGFMICBWJRZIBI-UJPOAAIJSA-N,14.58,-3,NA,NA,NA,NA,NA,NA,NA,NA,NA,NA,NA,NA
Omeprazole,HMDB01913,4.785,2,m,NA,0.048,0,COC1=CC2=C(C=C1)N=C(N2)S(=O)CC1=NC=C(C)C(OC)=C1C,InChIKey=SUBDBMMJDZJVOS-UHFFFAOYSA-N,3.26,-3.8,NaN,NaN,NaN,NaN,NaN,NaN,NaN,NaN,NaN,NaN,NaN,NaN
Indole-3-carbinol,HMDB05785,4.805,2,d,0.66,0.4006,0,OCC1=CNC2=CC=CC=C12,InChIKey=IVYPNXXAYMYVSP-UHFFFAOYSA-N,1.87,10,NA,NA,NA,NA,NA,NA,NA,NA,NA,NA,NA,NA
Inosine,HMDB00195,4.813,1,s,NA,-0.01,-1,OC[C@H]1O[C@H]([C@H](O)[C@@H]1O)N1C=NC2=C1N=CNC2=O,InChIKey=UGQMRVRMYYASKQ-KQYNXXCUSA-N,1.73,9.73,1.3875,0.67,NaN,0.37,0.64,NaN,NaN,NaN,NaN,NaN,NaN,NaN
Adenosine,HMDB00050,4.823,1,s,NA,0.0932,0,NC1=NC=NC2=C1N=CN2[C@@H]1O[C@H](CO)[C@@H](O)[C@H]1O,InChIKey=OIRDTQYFTABQOQ-KQYNXXCUSA-N,1.86,-6.7,1.3435,0.335,NaN,0.24,0,NaN,NaN,NaN,NaN,NaN,NaN,NaN
Lansoprazole,HMDB05008,4.825,2,d,6.55,0.0693,0,CC1=C(OCC(F)(F)F)C=CN=C1CS(=O)C1=NC2=CC=CC=C2N1,InChIKey=MJIHNNLFOKEZEW-UHFFFAOYSA-N,1.87,10,NA,NA,NA,NA,NA,NA,NA,NA,NA,NA,NA,NA
Ergocalciferol,HMDB00900,4.825,1,d,NA,0.0143,0,CC(C)[C@@H](C)\C=C\[C@@H](C)[C@H]1CC[C@@]2([H])\C(CCC[C@]12C)=C\C=C1\C[C@@H](O)CCC1=C,InChIKey=MECHNRXZTMCUDQ-RKHKHRCZSA-N,3.25,-6.3,NaN,NaN,NaN,0.008,NaN,NaN,NaN,NaN,NaN,NaN,NaN,NaN
Aldosterone,HMDB00037,4.855,1,s,NA,0.0302,0,C[C@]12CCC(=O)C=C1CCC1C3CC[C@H](C(=O)CO)[C@]3(C[C@H](O)C21)C=O,InChIKey=PQSUYGKTWSAVDQ-SRPWZAMTSA-N,4.03,-3,6.80E-05,0.01,NaN,NA,NaN,NaN,NaN,NaN,NaN,NaN,NaN,NaN
Azythromycin,HMDB01916,4.855,1,d,NA,0.0196,2,CC[C@@H]1OC(=O)[C@H](C)[C@@H](O[C@@H]2C[C@](C)(OC)[C@H](O)[C@@H](C)O2)[C@@H](C)[C@H](O[C@H]2O[C@@H](C)C[C@H]([C@@H]2O)N(C)C)[C@@](C)(O)C[C@H](C)CN(C)[C@@H](C)[C@@H](O)[C@]1(C)O,InChIKey=MQTOSJVFKKJCRP-HHZDEWPHSA-N,3.84,1.99,NA,NA,NA,NA,NA,NA,NA,NA,NA,NA,NA,NA
(+)-(S)-Carvone,HMDB04487,4.875,2,m,NA,0.043,0,CC(=C)[C@H]1CC=C(C)C(=O)C1,InChIKey=ULDHMXUKGWMISQ-VIFPVBQESA-N,1.86,-6.7,NaN,NaN,NaN,NaN,NaN,NaN,NaN,NaN,NaN,NaN,NaN,NaN
Salicin,HMDB03546,4.885,1,d,7.59,0.1489,0,OC[C@H]1O[C@@H](OC2=C(CO)C=CC=C2)[C@H](O)[C@@H](O)[C@@H]1O,InChIKey=NGFMICBWJRZIBI-UJPOAAIJSA-N,14.58,-3,NA,NA,NA,NA,NA,NA,NA,NA,NA,NA,NA,NA
Vanillylmandelic acid,HMDB00291,4.9,1,s,NA,0.0427,-1,COC1=C(O)C=CC(=C1)[C@H](O)C(O)=O,InChIKey=CGQCWMIAEPEHNQ-QMMMGPOBSA-N,8.93,-3.7,NaN,NA,NaN,NaN,NaN,NaN,NaN,NaN,NaN,NaN,NaN,NaN
Vitamin D3,HMDB00876,4.915,2,m,NA,0.0465,0,CC(C)CCC[C@@H](C)[C@H]1CCC2\C(CCC[C@]12C)=C\C=C1\C[C@@H](O)CCC1=C,InChIKey=QYSXJUFSXHHAJI-QWSSABAFSA-N,1.1,-3.6,0.03705,NaN,NaN,0.006,NaN,NaN,NaN,NaN,NaN,NaN,NaN,NaN
Glucosamine 6-sulfate,HMDB00592,4.925,0,d,8.47,0.1419,0,N[C@H]1[C@H](O)O[C@H](COS(O)(=O)=O)[C@@H](O)[C@@H]1O,InChIKey=MTDHILKWIRSIHB-QZABAPFNSA-N,3.2,4.54,NA,NA,NA,NA,NA,NA,NA,NA,NA,NA,NA,NA
Epinephrine,HMDB00068,4.945,1,dd,7.58 5.37,0.0395,1,CNC[C@H](O)C1=CC=C(O)C(O)=C1,InChIKey=UCTWMZQNUQWSLP-VIFPVBQESA-N,3.91,-3.6,0.00164,0.004333333,NaN,NaN,0.00012,NaN,NaN,NaN,NaN,NaN,NaN,NaN
3-Hydroxymandelic acid,HMDB00750,4.945,1,s,NA,0.6677,-1,OC(C(O)=O)C1=CC(O)=CC=C1,InChIKey=OLSDAJRAVOVKLG-UHFFFAOYSA-N,3.37,5.02,NaN,NaN,NaN,NaN,NaN,NaN,NaN,NaN,NaN,NaN,NaN,NaN
Berberine,HMDB03409,4.945,2,t,6.38,0.1078,1,COC1=C(OC)C2=C[N+]3=C(C=C2C=C1)C1=CC2=C(OCO2)C=C1CC3,InChIKey=YBHILYKTIRIUTE-UHFFFAOYSA-N,14.58,-3,NaN,NaN,NaN,NaN,NaN,NaN,NaN,NaN,NaN,NaN,NaN,NaN
Pyridoxal 5'-phosphate,HMDB01491,4.955,2,d,6.22,0.0265,-2,CC1=NC=C(COP(O)(O)=O)C(C=O)=C1O,InChIKey=NGVDGCNFYWLIFO-UHFFFAOYSA-N,3.27,4.95,0.0309,NaN,NaN,NaN,NaN,NaN,NaN,NaN,NaN,NaN,NaN,NaN
Glucosamine 6-phosphate,HMDB01254,4.955,3,d,8.42,0.3081,-1,N[C@H]1[C@@H](O)O[C@H](COP(O)(O)=O)[C@@H](O)[C@@H]1O,InChIKey=XHMJOUIAFHJHBW-UKFBFLRUSA-N,7.82,9.73,NA,NA,NA,NA,NA,NA,NA,NA,NA,NA,NA,NA
Muramic acid,HMDB03254,4.955,1,d,8.47,0.241,0,C[C@@H](O[C@H]1[C@@H](N)[C@H](O)O[C@H](CO)[C@H]1O)C(O)=O,InChIKey=MSFSPUZXLOGKHJ-LEISLEKSSA-N,14.58,-3,NA,NA,NA,NA,NA,NA,NA,NA,NA,NA,NA,NA
Isomaltose,HMDB02923,4.955,2,t,NA,0.8816,0,OC[C@H]1O[C@H](OC[C@H]2OC(O)[C@H](O)[C@@H](O)[C@@H]2O)[C@H](O)[C@@H](O)[C@@H]1O,InChIKey=DLRVVLDZNNYCBX-RTPHMHGBSA-N,9.91,-1.4,NaN,NaN,NaN,NaN,NaN,NaN,NaN,NaN,NaN,NaN,NaN,NaN
Epicatechin,HMDB01871,4.965,1,m,NA,0.2135,0,O[C@@H]1CC2=C(O)C=C(O)C=C2O[C@@H]1C1=CC(O)=C(O)C=C1,InChIKey=PFTAWBLQPZVEMU-UKRRQHHQSA-N,1.73,4.95,0.625,0.13,NaN,NaN,NaN,NaN,NaN,NaN,NaN,NaN,NaN,NaN
Glyceraldehyde,HMDB01051,4.965,1,d,5.22,0.6001,0,OCC(O)C=O,InChIKey=MNQZXJOMYWMBOU-UHFFFAOYSA-N,1.37,-1.4,1476,NaN,NaN,NaN,NaN,NaN,NaN,NaN,NaN,NaN,NaN,NaN
Phenylpropanolamine,HMDB01942,4.975,1,d,NA,0.0597,1,C[C@@H](N)[C@@H](O)C1=CC=CC=C1,InChIKey=DLNKOYKMWOXYQA-VXNVDRBHSA-N,1.87,10,NaN,NaN,NaN,NaN,NaN,NaN,NaN,NaN,NaN,NaN,NaN,NaN
Hesperidin,HMDB03265,4.995,1,t,NA,0.0556,0,COC1=CC=C(C=C1O)[C@@H]1CC(=O)C2=C(O1)C=C(OC1O[C@H](CO[C@H]3O[C@@H](C)[C@@H](O)[C@@H](O)[C@H]3O)[C@H](O)[C@H](O)[C@H]1O)C=C2O,InChIKey=QUQPHWDTPGMPEX-UNZJSITISA-N,14.58,-3,NA,NA,NA,NA,NA,NA,NA,NA,NA,NA,NA,NA
Stachyose,HMDB03553,4.995,2,m,NA,0.6293,0,OC[C@H]1O[C@@](CO)(O[C@H]2O[C@H](CO[C@H]3O[C@H](CO[C@H]4O[C@H](CO)[C@H](O)[C@H](O)[C@H]4O)[C@H](O)[C@H](O)[C@H]3O)[C@@H](O)[C@H](O)[C@H]2O)[C@@H](O)[C@@H]1O,InChIKey=UQZIYBXSHAGNOE-XNSRJBNMSA-N,14.58,-3,NA,NA,NA,NA,NA,NA,NA,NA,NA,NA,NA,NA
Mandelic acid,HMDB00703,4.995,2,s,NA,0.1305,-1,O[C@H](C(O)=O)C1=CC=CC=C1,InChIKey=IWYDHOAUDWTVEP-ZETCQYMHSA-N,11.6,-4.9,NaN,0.7315,NaN,NaN,NaN,NaN,NaN,NaN,NaN,NaN,NaN,NaN
Raffinose,HMDB03213,4.995,1,d,3.8,0.3955,0,OC[C@H]1O[C@@](CO)(OC2O[C@H](COC3O[C@H](CO)[C@H](O)[C@H](O)[C@H]3O)[C@@H](O)[C@H](O)[C@H]2O)[C@@H](O)[C@@H]1O,InChIKey=MUPFEKGTMRGPLJ-BQCSWRFHSA-N,14.58,-3,NaN,NaN,NaN,NaN,NaN,NaN,NaN,NaN,NaN,NaN,NaN,NaN
N-Acetylmannosamine,HMDB01129,5.035,1,d,1.6,0.1673,0,[H][C@@]1(O)O[C@H](CO)[C@@H](O)[C@H](O)[C@@H]1NC(C)=O,InChIKey=OVRNDRQMDRJTHS-OZRXBMAMSA-N,2.86,2.89,NaN,NaN,NaN,NaN,NaN,NaN,NaN,NaN,NaN,NaN,NaN,NaN
3-(3-Hydroxyphenyl)-3-hydroxypropanoic acid,HMDB02643,5.045,1,dd,7.99 6.07,0.4764,-1,OC(CC(O)=O)C1=CC(O)=CC=C1,InChIKey=KHTAGVZHYUZYMF-UHFFFAOYSA-N,8.27,-2.8,NaN,8.275,NaN,NaN,NaN,NaN,NaN,NaN,NaN,NaN,NaN,NaN
Stigmasterol,HMDB00937,5.045,1,dd,15.03 8.62,0.0844,0,CC[C@H](\C=C\[C@@H](C)[C@@]1([H])CC[C@@]2([H])[C@]3([H])CC=C4C[C@@H](O)CC[C@]4(C)[C@@]3([H])CC[C@]12C)C(C)C,InChIKey=HCXVJBMSMIARIN-PHZDYDNGSA-N,16.3,5.29,NaN,NaN,NaN,NaN,NaN,NaN,NaN,NaN,NaN,NaN,NaN,NaN
Pyridoxal,HMDB01545,5.053,1,d,13.18,0.0197,0,CC1=C(O)C(C=O)=C(CO)C=N1,InChIKey=RADKZDMFGJYCBB-UHFFFAOYSA-N,0.83,-4.9,0.251,NaN,NaN,NaN,NaN,NaN,NaN,NaN,NaN,NaN,NaN,NaN
11a-Hydroxyprogesterone,HMDB00920,5.055,1,s,NA,0.0852,0,[H][C@@]12CCC(C(C)=O)[C@@]1(C)C[C@@H](O)[C@@]1([H])[C@@]2([H])CCC2=CC(=O)CC[C@]12C,InChIKey=BFZHCUBIASXHPK-ODYOLWGQSA-N,16.38,10.67,NA,NA,NA,NA,NA,NA,NA,NA,NA,NA,NA,NA
D-Glucurono-6.3-lactone,HMDB06355,5.055,1,m,NA,0.3228,0,O[C@@H]1O[C@@H]2[C@@H](O)C(=O)O[C@@H]2[C@H]1O,InChIKey=OGLCQHRZUSEXNB-WHDMSYDLSA-N,2.95,-3.4,NA,NA,NA,NA,NA,NA,NA,NA,NA,NA,NA,NA
Ergocalciferol,HMDB00900,5.055,1,m,NA,0.0129,0,CC(C)[C@@H](C)\C=C\[C@@H](C)[C@H]1CC[C@@]2([H])\C(CCC[C@]12C)=C\C=C1\C[C@@H](O)CCC1=C,InChIKey=MECHNRXZTMCUDQ-RKHKHRCZSA-N,3.25,-6.3,NaN,NaN,NaN,0.008,NaN,NaN,NaN,NaN,NaN,NaN,NaN,NaN
Uvaol,HMDB02391,5.075,1,br. s.,NA,0.1141,0,[H][C@@]12[C@@H](C)[C@H](C)CC[C@]1(CO)CC[C@]1(C)C2=CC[C@]2([H])[C@@]3(C)CC[C@H](O)C(C)(C)[C@]3([H])CC[C@@]12C,InChIKey=XUARCIYIVXVTAE-ZAPOICBTSA-N,13.56,-6.6,NA,NA,NA,NA,NA,NA,NA,NA,NA,NA,NA,NA
Sepiapterin,HMDB00238,5.085,1,q,NA,0.041,0,C[C@H](O)C(=O)C1=NC2=C(NC1)NC(N)=NC2=O,InChIKey=VPVOXUSPXFPWBN-VKHMYHEASA-N,12.42,-3.6,NaN,NaN,NaN,NaN,5.00E-04,NaN,NaN,NaN,NaN,NaN,NaN,NaN
Naringin,HMDB02927,5.095,1,dd,NA,0.0251,0,C[C@@H]1O[C@@H](O[C@@H]2[C@@H](O)[C@H](O)[C@@H](CO)O[C@H]2OC2=CC(O)=C3C(=O)C[C@H](OC3=C2)C2=CC=C(O)C=C2)[C@H](O)[C@H](O)[C@H]1O,InChIKey=DFPMSGMNTNDNHN-ZPHOTFPESA-N,3.04,-3.3,NaN,NaN,NaN,NaN,NaN,NaN,NaN,NaN,NaN,NaN,NaN,NaN
Glyoxylic acid,HMDB00119,5.105,1,s,NA,1,-1,OC(=O)C=O,InChIKey=HHLFWLYXYJOTON-UHFFFAOYSA-N,2.74,8.93,NaN,3.28,NaN,NaN,NaN,NaN,NaN,NaN,NaN,NaN,NaN,NaN
NADP,HMDB00217,5.115,1,ddd,9.16 5.44 5.34,0.1673,-3,NC(=O)C1=C[N+](=CC=C1)[C@@H]1O[C@H](CO[P@](O)(=O)O[P@](O)(=O)OC[C@H]2O[C@H]([C@H](OP(O)(O)=O)[C@@H]2O)N2C=NC3=C(N)N=CN=C23)[C@@H](O)[C@H]1O,InChIKey=XJLXINKUBYWONI-NNYOXOHSSA-O,4.48,-2.8,NA,NA,NA,NA,NA,NA,NA,NA,NA,NA,NA,NA
Rhamnose,HMDB00849,5.119,1,d,1.71,0.2194,0,C[C@@H]1OC(O)[C@H](O)[C@H](O)[C@H]1O,InChIKey=SHZGCJCMOBCMKK-JFNONXLTSA-N,0.89,-1.5,NaN,NaN,NaN,NaN,NaN,NaN,NaN,NaN,NaN,NaN,NaN,NaN
Rutin,HMDB03249,5.125,1,d,7.7,0.2544,-1,C[C@@H]1O[C@@H](OC[C@H]2O[C@@H](OC3=C(OC4=CC(O)=CC(O)=C4C3=O)C3=CC(O)=C(O)C=C3)[C@H](O)[C@@H](O)[C@@H]2O)[C@H](O)[C@H](O)[C@H]1O,InChIKey=IKGXIBQEEMLURG-NVPNHPEKSA-N,14.58,-3,NaN,NaN,NaN,NaN,NaN,NaN,NaN,NaN,NaN,NaN,NaN,NaN
Amylose,HMDB03403,5.135,1,br. s.,NA,NA,NA,NA,NA,14.58,-3,NA,NA,NA,NA,NA,NA,NA,NA,NA,NA,NA,NA
Maltitol,HMDB02928,5.135,1,d,3.91,0.738,0,[H][C@@](O[C@H]1O[C@H](CO)[C@@H](O)[C@H](O)[C@H]1O)([C@H](O)CO)[C@H](O)[C@@H](O)CO,InChIKey=VQHSOMBJVWLPSR-WUJBLJFYSA-N,1.22,-0.88,NA,NA,NA,NA,NA,NA,NA,NA,NA,NA,NA,NA
N-Acetylmannosamine,HMDB01129,5.135,1,d,1.43,0.1574,0,[H][C@@]1(O)O[C@H](CO)[C@@H](O)[C@H](O)[C@@H]1NC(C)=O,InChIKey=OVRNDRQMDRJTHS-OZRXBMAMSA-N,2.86,2.89,NaN,NaN,NaN,NaN,NaN,NaN,NaN,NaN,NaN,NaN,NaN,NaN
Ergocalciferol,HMDB00900,5.165,2,m,NA,0.0191,0,CC(C)[C@@H](C)\C=C\[C@@H](C)[C@H]1CC[C@@]2([H])\C(CCC[C@]12C)=C\C=C1\C[C@@H](O)CCC1=C,InChIKey=MECHNRXZTMCUDQ-RKHKHRCZSA-N,3.25,-6.3,NaN,NaN,NaN,0.008,NaN,NaN,NaN,NaN,NaN,NaN,NaN,NaN
Pyridoxal 5'-phosphate,HMDB01491,5.175,11,d,6.82,0.2395,-2,CC1=NC=C(COP(O)(O)=O)C(C=O)=C1O,InChIKey=NGVDGCNFYWLIFO-UHFFFAOYSA-N,3.27,4.95,0.0309,NaN,NaN,NaN,NaN,NaN,NaN,NaN,NaN,NaN,NaN,NaN
Lathosterol,HMDB01170,5.175,1,m,NA,0.0053,0,[H][C@@]1(CC[C@@]2([H])C3=CC[C@@]4([H])C[C@@H](O)CC[C@]4(C)[C@@]3([H])CC[C@]12C)[C@H](C)CCCC(C)C,InChIKey=IZVFFXVYBHFIHY-SKCNUYALSA-N,1.57,-2.4,3.905,NaN,NaN,NaN,NaN,NaN,NaN,NaN,NaN,NaN,NaN,NaN
Oleanolic acid,HMDB02364,5.175,1,br. s.,NA,0.0783,-1,[H][C@@]12CC(C)(C)CC[C@@]1(CC[C@]1(C)C2=CC[C@]2([H])[C@@]3(C)CC[C@H](O)C(C)(C)[C@]3([H])CC[C@@]12C)C(O)=O,InChIKey=MIJYXULNPSFWEK-GTOFXWBISA-N,3.81,10,NaN,NaN,NaN,NaN,NaN,NaN,NaN,NaN,NaN,NaN,NaN,NaN
Stigmasterol,HMDB00937,5.175,1,dd,15.08 8.62,0.1071,0,CC[C@H](\C=C\[C@@H](C)[C@@]1([H])CC[C@@]2([H])[C@]3([H])CC=C4C[C@@H](O)CC[C@]4(C)[C@@]3([H])CC[C@]12C)C(C)C,InChIKey=HCXVJBMSMIARIN-PHZDYDNGSA-N,16.3,5.29,NaN,NaN,NaN,NaN,NaN,NaN,NaN,NaN,NaN,NaN,NaN,NaN
D-Mannose,HMDB00169,5.187,7,d,1.317,NA,0,OC[C@H]1OC(O)[C@@H](O)[C@@H](O)[C@@H]1O,InChIKey=WQZGKKKJIJFFOK-QTVWNMPRSA-N,3.66,9.48,39,1.25,NaN,NaN,44,NaN,NaN,NaN,NaN,NaN,NaN,NaN
Phosphoenolpyruvic acid,HMDB00263,5.195,1,t,1.19,0.9739,-3,OC(=O)C(=C)OP(O)(O)=O,InChIKey=DTBNBXWJWCWCIK-UHFFFAOYSA-N,4.83,-0.16,17.4,NaN,NaN,NaN,NaN,NaN,NaN,NaN,NaN,NaN,NaN,NaN
Citalopram,HMDB05038,5.195,2,dd,NA,0.0144,1,CN(C)CCCC1(OCC2=C1C=CC(=C2)C#N)C1=CC=C(F)C=C1,InChIKey=WSEQXVZVJXJVFP-UHFFFAOYSA-N,1.87,10,NA,NA,NA,NA,NA,NA,NA,NA,NA,NA,NA,NA