Metabolite,HMDB Name,Shift (ppm),Hs,Type,J (Hz),Height,Physiological Charge,SMILES,InChlKey,pKa (Strongest Acidic),pKa (Strongest Basic),Blood,Urine,Feces,Saliva,Cerebrospinal Fluid (CSF),Amniotic Fluid,Aqueous Humour,Ascites Fluid,Breast Milk,Lymph,Sweat,Tears
Alpha-Aspartyl-lysine,HMDB04987,4.155,7,t,6.15,0.2524,0,NCCCC[C@H](NC(=O)[C@@H](N)CC(O)=O)C(O)=O,InChIKey=OAMLVOVXNKILLQ-BQBZGAKWSA-N,1.87,10,NaN,NaN,NaN,NaN,NaN,NaN,NaN,NaN,NaN,NaN,NaN,NaN
Aspartame,HMDB01894,4.155,1,dd,8.11 5.20,0.0565,0,COC(=O)[C@H](CC1=CC=CC=C1)NC(=O)[C@@H](N)CC(O)=O,InChIKey=IAOZJIPTCAWIRG-QWRGUYRKSA-N,13.45,-2.7,NaN,NaN,NaN,NaN,NaN,NaN,NaN,NaN,NaN,NaN,NaN,NaN
N-Alpha-acetyllysine,HMDB00446,4.155,5,m,NA,0.0871,0,CC(=O)NC(CCCCN)C(O)=O,InChIKey=VEYYWZRYIYDQJM-UHFFFAOYSA-N,13.85,-0.16,NaN,NaN,NaN,NaN,NaN,NaN,NaN,NaN,NaN,NaN,NaN,NaN
S-Adenosylhomocysteine,HMDB00939,4.155,1,t,NA,0.2808,0,N[C@@H](CCSC[C@H]1O[C@H]([C@H](O)[C@@H]1O)N1C=NC2=C(N)N=CN=C12)C(O)=O,InChIKey=ZJUKTBDSGOFHSH-WFMPWKQPSA-N,9.43,1.41,NaN,NaN,NaN,NaN,0.01,NaN,NaN,NaN,NaN,NaN,NaN,NaN
dCMP,HMDB01202,4.165,1,m,NA,0.0722,-2,NC1=NC(=O)N(C=C1)[C@H]1C[C@H](O)[C@@H](COP(O)(O)=O)O1,InChIKey=NCMVOABPESMRCP-SHYZEUOFSA-N,1.85,9.4,NA,NA,NA,NA,NA,NA,NA,NA,NA,NA,NA,NA
Isovalerylalanine,HMDB00747,4.165,1,m,7.21,0.1031,-1,CC(C)CC(=O)N[C@@H](C)C(O)=O,InChIKey=OJPSNARFDYTAEN-LURJTMIESA-N,4.65,-0.91,NA,NA,NA,NA,NA,NA,NA,NA,NA,NA,NA,NA
ADP,HMDB01341,4.165,4,m,NA,0.0283,-2,NC1=NC=NC2=C1N=CN2[C@@H]1O[C@H](COP(O)(=O)OP(O)(O)=O)[C@@H](O)[C@H]1O,InChIKey=XTWYTFMLZFPYCI-KQYNXXCUSA-N,3.24,-2.8,NaN,NaN,NaN,NaN,1.9,NaN,NaN,NaN,NaN,NaN,NaN,NaN
Thymidine 5'-triphosphate,HMDB01342,4.174,1,m,NA,0.058,-3,CC1=CN([C@H]2C[C@H](O)[C@@H](COP(O)(=O)OP(O)(=O)OP(O)(O)=O)O2)C(=O)NC1=O,InChIKey=NHVNXKFIZYSCEB-XLPZGREQSA-N,1.38,-3.7,NA,NA,NA,NA,NA,NA,NA,NA,NA,NA,NA,NA
(R)-3-Hydroxybutyric acid,HMDB00011,4.175,1,dt,7.22 6.31,0.1761,-1,C[C@@H](O)CC(O)=O,InChIKey=WHBMMWSBFZVSSR-GSVOUGTGSA-N,3.37,4.09,53.33333333,25.8,NaN,NaN,286,NaN,NaN,NaN,NaN,NaN,NaN,NaN
3-Hydroxybutyric acid,HMDB00357,4.175,13,m,NA,NA,-1,CC(O)CC(O)=O,InChIKey=WHBMMWSBFZVSSR-UHFFFAOYSA-N,18.3,-2.8,73.81666667,0.906666667,NaN,3.88,43.46666667,NaN,NaN,NaN,NaN,NaN,NaN,NaN
Allose,HMDB01151,4.175,1,t,2.83,0.3818,0,[H][C@@]1(CO)OC(O)[C@@]([H])(O)[C@@]([H])(O)[C@@]1([H])O,InChIKey=WQZGKKKJIJFFOK-HOWGCPQDSA-N,10.47,-4.8,NA,NA,NA,NA,NA,NA,NA,NA,NA,NA,NA,NA
Azythromycin,HMDB01916,4.175,1,m,NA,0.0234,2,CC[C@@H]1OC(=O)[C@H](C)[C@@H](O[C@@H]2C[C@](C)(OC)[C@H](O)[C@@H](C)O2)[C@@H](C)[C@H](O[C@H]2O[C@@H](C)C[C@H]([C@@H]2O)N(C)C)[C@@](C)(O)C[C@H](C)CN(C)[C@@H](C)[C@@H](O)[C@]1(C)O,InChIKey=MQTOSJVFKKJCRP-HHZDEWPHSA-N,3.84,1.99,NA,NA,NA,NA,NA,NA,NA,NA,NA,NA,NA,NA
Citicoline,HMDB01413,4.175,1,m,NA,0.017,-1,C[N+](C)(C)CCOP([O-])(=O)OP(O)(=O)OC[C@H]1O[C@H]([C@H](O)[C@@H]1O)N1C=CC(N)=NC1=O,InChIKey=RZZPDXZPRHQOCG-OJAKKHQRSA-N,2.12,-3.8,NA,NA,NA,NA,NA,NA,NA,NA,NA,NA,NA,NA
TG(10:0/10:0/10:0)[iso],HMDB00548,4.175,2,dd,11.92 5.97,0.0461,0,CCCCCCCCCC(=O)OCC(COC(=O)CCCCCCCCC)OC(=O)CCCCCCCCC,InChIKey=LADGBHLMCUINGV-UHFFFAOYSA-N,4.99,5.15,NA,NA,NA,NA,NA,NA,NA,NA,NA,NA,NA,NA
ADP,HMDB01341,4.175,5,m,NA,0.0584,-2,NC1=NC=NC2=C1N=CN2[C@@H]1O[C@H](COP(O)(=O)OP(O)(O)=O)[C@@H](O)[C@H]1O,InChIKey=XTWYTFMLZFPYCI-KQYNXXCUSA-N,3.24,-2.8,NaN,NaN,NaN,NaN,1.9,NaN,NaN,NaN,NaN,NaN,NaN,NaN
Pyroglutamic acid,HMDB00267,4.185,15,dd,9.02 5.83,0.2464,-1,OC(=O)[C@@H]1CCC(=O)N1,InChIKey=ODHCTXKNWHHXJC-VKHMYHEASA-N,12.7,-0.88,19.5,14,NaN,30.19,47,NaN,NaN,NaN,NaN,NaN,NaN,NaN
3-Deoxyarabinohexonic acid,HMDB00346,4.185,1,dd,9.71 3.33,0.3187,-1,OC[C@@H](O)[C@@H](O)C[C@H](O)C(O)=O,InChIKey=YGMNHEPVTNXLLS-VAYJURFESA-N,4.31,-7.3,NA,NA,NA,NA,NA,NA,NA,NA,NA,NA,NA,NA
5-Thymidylic acid,HMDB01227,4.185,1,m,NA,0.1405,-2,CC1=CN([C@H]2C[C@H](O)[C@@H](COP(O)(O)=O)O2)C(=O)NC1=O,InChIKey=GYOZYWVXFNDGLU-XLPZGREQSA-N,9.56,-2.9,NA,NA,NA,NA,NA,NA,NA,NA,NA,NA,NA,NA
Deoxyadenosine triphosphate,HMDB01532,4.185,1,m,NA,0.0207,-3,NC1=NC=NC2=C1N=CN2[C@H]1C[C@H](O)[C@@H](COP(O)(=O)OP(O)(=O)OP(O)(O)=O)O1,InChIKey=SUYVUBYJARFZHO-RRKCRQDMSA-N,9.06,-4.2,NA,NA,NA,NA,NA,NA,NA,NA,NA,NA,NA,NA
Isovalerylglutamic acid,HMDB00726,4.185,1,m,NA,0.0466,-2,CC(C)CC(=O)N[C@@H](CCC(O)=O)C(O)=O,InChIKey=HCVIJONZMYVLAW-ZETCQYMHSA-N,1.12,4.95,NA,NA,NA,NA,NA,NA,NA,NA,NA,NA,NA,NA
Dehydroascorbic acid,HMDB01264,4.185,1,dd,10.34 2.59,0.2329,-1,[H][C@@]1(OC(=O)C(=O)C1=O)[C@H](O)CO,InChIKey=SBJKKFFYIZUCET-DUZGATOHSA-N,11.63,9.37,NaN,NaN,NaN,NaN,NaN,NaN,NaN,NaN,NaN,NaN,NaN,NaN
Pyrrolidonecarboxylic acid,HMDB00805,4.185,1,dd,9.00 5.90,0.2742,-1,OC(=O)C1CCC(=O)N1,InChIKey=ODHCTXKNWHHXJC-UHFFFAOYSA-N,1.2,4.95,NaN,NaN,NaN,0.618,NaN,NaN,NaN,NaN,NaN,NaN,NaN,NaN
Uridine diphosphate-N-acetylglucosamine,HMDB00290,4.191,1,m,NA,0.037,-2,CC(=O)N[C@@H]1[C@@H](O)[C@H](O)[C@@H](CO)O[C@@H]1OP(O)(=O)OP(O)(=O)OC[C@H]1O[C@H]([C@H](O)[C@@H]1O)N1C=CC(=O)NC1=O,InChIKey=LFTYTUAZOPRMMI-CFRASDGPSA-N,4.67,-0.88,NaN,NaN,NaN,NaN,NaN,NaN,NaN,NaN,NaN,NaN,NaN,NaN
Ethenodeoxyadenosine,HMDB01786,4.195,1,m,NA,0.262,0,OC[C@H]1O[C@H](C[C@@H]1O)N1C=NC2=C1N=CN1C=CN=C21,InChIKey=XQQIMTUYVDUWKJ-DJLDLDEBSA-N,7.67,4.94,NA,NA,NA,NA,NA,NA,NA,NA,NA,NA,NA,NA
Cysteine-S-sulfate,HMDB00731,4.195,1,dd,7.92 3.74,0.7554,-1,N[C@@H](CSS(O)(=O)=O)C(O)=O,InChIKey=NOKPBJYHPHHWAN-REOHCLBHSA-N,-1.1,-0.05,NaN,6.94,NaN,NaN,NaN,NaN,NaN,NaN,NaN,NaN,NaN,NaN
Deoxyadenosine,HMDB00101,4.195,1,q,3.25,0.3015,0,NC1=NC=NC2=C1N=CN2[C@H]1C[C@H](O)[C@@H](CO)O1,InChIKey=OLXZPDWKRNYJJZ-RRKCRQDMSA-N,1.86,-6.7,NaN,0.22,NaN,NaN,NaN,NaN,NaN,NaN,NaN,NaN,NaN,NaN
Deoxyinosine,HMDB00071,4.195,1,m,NA,0.179,0,OC[C@H]1O[C@H](C[C@@H]1O)N1C=NC2=C1N=CN=C2O,InChIKey=VGONTNSXDCQUGY-RRKCRQDMSA-N,3.53,-4.9,NaN,NA,NaN,NaN,NaN,NaN,NaN,NaN,NaN,NaN,NaN,NaN
D-Xylulose,HMDB01644,4.195,1,dd,9.52 6.55,0.1099,0,OC[C@@H](O)[C@H](O)C(=O)CO,InChIKey=ZAQJHHRNXZUBTE-WUJLRWPWSA-N,3.08,-1,NaN,NaN,NaN,NaN,NaN,NaN,NaN,NaN,NaN,NaN,NaN,NaN
Guanosine triphosphate,HMDB01273,4.195,0,ddd,NA,0.0294,-3,NC1=NC2=C(N=CN2[C@@H]2O[C@H](COP(O)(=O)OP(O)(=O)OP(O)(O)=O)[C@@H](O)[C@H]2O)C(=O)N1,InChIKey=XKMLYUALXHKNFT-UUOKFMHZSA-N,12.43,-1.2,NaN,NaN,NaN,NaN,1.83,NaN,NaN,NaN,NaN,NaN,NaN,NaN
3-Phosphoglyceric acid,HMDB00807,4.205,1,dd,6.30 2.78,0.1771,-3,OC(COP(O)(O)=O)C(O)=O,InChIKey=OSJPPGNTCRNQQC-UHFFFAOYSA-N,0.95,-3.8,47.2,NaN,NaN,NaN,NaN,NaN,NaN,NaN,NaN,NaN,NaN,NaN
Heparin,HMDB01394,4.205,6,m,NA,0.0299,-6,CC(=O)N[C@@H]1[C@@H](O)[C@H](O)[C@@H](COS(O)(=O)=O)O[C@@H]1O[C@H]1[C@H](O)[C@@H](O)[C@H](O[C@@H]2[C@@H](O)O[C@H](O[C@H]3[C@H](O)[C@@H](OS(O)(=O)=O)C(O)O[C@H]3C(O)=O)[C@H](OS(O)(=O)=O)[C@H]2CS(O)(=O)=O)O[C@@H]1C(O)=O,InChIKey=ZFGMDIBRIDKWMY-PASTXAENSA-N,1.87,10,NA,NA,NA,NA,NA,NA,NA,NA,NA,NA,NA,NA
(S)-3-Hydroxybutyric acid,HMDB00442,4.205,1,m,NA,0.2159,-1,C[C@H](O)CC(O)=O,InChIKey=WHBMMWSBFZVSSR-VKHMYHEASA-N,1.86,-3,NaN,NaN,NaN,NaN,NaN,NaN,NaN,NaN,NaN,NaN,NaN,NaN
6-Phosphogluconic acid,HMDB01316,4.205,1,d,3.57,0.0817,-3,O[C@H](COP(O)(O)=O)[C@@H](O)[C@H](O)[C@@H](O)C(O)=O,InChIKey=BIRSGZKFKXLSJQ-SQOUGZDYSA-N,1.78,10.62,NaN,NaN,NaN,NaN,NaN,NaN,NaN,NaN,NaN,NaN,NaN,NaN
Alpha-Aspartyl-lysine,HMDB04987,4.205,8,dd,9.06 4.67,0.3767,0,NCCCC[C@H](NC(=O)[C@@H](N)CC(O)=O)C(O)=O,InChIKey=OAMLVOVXNKILLQ-BQBZGAKWSA-N,1.87,10,NaN,NaN,NaN,NaN,NaN,NaN,NaN,NaN,NaN,NaN,NaN,NaN
Deoxycorticosterone,HMDB00016,4.205,1,dd,9.06 4.35,0.0811,0,[H][C@@]12CC[C@H](C(=O)CO)[C@@]1(C)CC[C@@]1([H])[C@@]2([H])CCC2=CC(=O)CC[C@]12C,InChIKey=ZESRJSPZRDMNHY-YFWFAHHUSA-N,-1.9,-2.7,NaN,NaN,NaN,NaN,NaN,NaN,NaN,NaN,NaN,NaN,NaN,NaN
PA(16:0/16:0),HMDB00674,4.205,1,dd,NA,0.004,-2,CCCCCCCCCCCCCCCC(=O)OC[C@H](COP(O)(O)=O)OC(=O)CCCCCCCCCCCCCCC,InChIKey=PORPENFLTBBHSG-MGBGTMOVSA-N,2.56,10.29,NaN,NaN,NaN,NaN,NaN,NaN,NaN,NaN,NaN,NaN,NaN,NaN
Tetrahydrocortisone,HMDB00903,4.205,1,d,NA,0.0067,0,[H][C@@]12CC[C@](O)(C(=O)CO)[C@@]1(C)CC(=O)[C@@]1([H])[C@@]2([H])CC[C@@]2([H])C[C@@H](O)CC[C@]12C,InChIKey=SYGWGHVTLUBCEM-SDYDLROXSA-N,15.56,10.9,NaN,0.51,NaN,NaN,NaN,NaN,NaN,NaN,NaN,NaN,NaN,NaN
Uridine diphosphategalactose,HMDB00302,4.205,4,m,NA,0.2918,-2,OC[C@H]1O[C@H](O[P@@](O)(=O)O[P@@](O)(=O)OC[C@H]2O[C@H]([C@H](O)[C@@H]2O)N2C=CC(=O)NC2=O)[C@H](O)[C@@H](O)[C@H]1O,InChIKey=HSCJRCZFDFQWRP-ABVWGUQPSA-N,4.48,-2.8,NaN,NaN,NaN,NaN,NaN,NaN,NaN,NaN,NaN,NaN,NaN,NaN
Guanosine diphosphate,HMDB01201,4.21,1,m,NA,0.1262,-2,NC1=NC2=C(N=CN2[C@@H]2O[C@H](COP(O)(=O)OP(O)(O)=O)[C@@H](O)[C@H]2O)C(=O)N1,InChIKey=QGWNDRXFNXRZMB-UUOKFMHZSA-N,12.45,8.87,18,NaN,NaN,NaN,1.86,NaN,NaN,NaN,NaN,NaN,NaN,NaN
Phosphoserine,HMDB00272,4.214,1,dd,6.39 3.34,0.1056,-2,N[C@@H](COP(O)(O)=O)C(O)=O,InChIKey=BZQFBWGGLXLEPQ-REOHCLBHSA-N,3.44,-0.35,NaN,4.201666667,NaN,NaN,4.6,NaN,NaN,NaN,NaN,NaN,NaN,NaN
Folic acid,HMDB00121,4.215,1,br. s.,NA,0.2193,-2,NC1=NC(=O)C2=NC(CNC3=CC=C(C=C3)C(=O)N[C@@H](CCC(O)=O)C(O)=O)=CN=C2N1,InChIKey=OVBPIULPVIDEAO-LBPRGKRZSA-N,11.25,-3.7,0.039333333,NA,NaN,NaN,0.053,NaN,NaN,NaN,NaN,NaN,NaN,NaN
Cytidine,HMDB00089,4.215,11,t,5.67,0.6181,0,NC1=NC(=O)N(C=C1)[C@@H]1O[C@H](CO)[C@@H](O)[C@H]1O,InChIKey=UHDGCWIWMRVCDJ-XVFCMESISA-N,12.18,-5.4,0.175,0.393333333,NaN,0.132,NaN,NaN,NaN,NaN,NaN,NaN,NaN,NaN
D-Ribose 5-phosphate,HMDB01548,4.215,14,m,NA,0.3091,-2,OC1O[C@H](COP(O)(O)=O)[C@@H](O)[C@H]1O,InChIKey=KTVPXOYAKDPRHY-SOOFDHNKSA-N,4.64,-6,13.2,NaN,NaN,NaN,NaN,NaN,NaN,NaN,NaN,NaN,NaN,NaN
Glutathione,HMDB00125,4.215,4,q,7.14,0.3693,-1,N[C@@H](CCC(=O)N[C@@H](CS)C(=O)NCC(O)=O)C(O)=O,InChIKey=RWSXRVCMGQZWBV-WDSKDSINSA-N,1.87,-4.7,800.5,0.065,NaN,4.41,NaN,NaN,NaN,NaN,NaN,NaN,NaN,NaN
dGTP,HMDB01440,4.215,2,m,NA,0.2222,-3,NC1=NC2=C(N=CN2[C@H]2C[C@H](O)[C@@H](COP(O)(=O)OP(O)(=O)OP(O)(O)=O)O2)C(=O)N1,InChIKey=HAAZLUGHYHWQIW-KVQBGUIXSA-N,2.23,-0.28,NA,NA,NA,NA,NA,NA,NA,NA,NA,NA,NA,NA
Hydroxycobalamin,HMDB02308,4.215,1,d,NA,0.006,2,[Co++].O.OC[C@H]1O[C@@]([H])([C@H](O)[C@]1([H])OP(=O)([O-])O[C@H](C)CNC(=O)CC[C@]1(C)[C@@H](CC(=O)N)[C@@]2([H])[N-]\C1=C(C)/C1=N/C(=C\C3=N\C(=C(C)/C4=N[C@]2(C)[C@@](C)(CC(=O)N)[C@@H]4CCC(=O)N)\[C@@](C)(CC(=O)N)[C@@H]3CCC(=O)N)/C(C)(C)[C@@H]1CCC(=O)N)N1C=NC2=C1C=C(C)C(C)=C2,InChIKey=DQOCFCZRZOAIBN-WZHZPDAFSA-L,2.45,-1.9,NA,NA,NA,NA,NA,NA,NA,NA,NA,NA,NA,NA
Berberine,HMDB03409,4.215,2,s,NA,0.7502,1,COC1=C(OC)C2=C[N+]3=C(C=C2C=C1)C1=CC2=C(OCO2)C=C1CC3,InChIKey=YBHILYKTIRIUTE-UHFFFAOYSA-N,14.58,-3,NaN,NaN,NaN,NaN,NaN,NaN,NaN,NaN,NaN,NaN,NaN,NaN
Erythrose,HMDB02649,4.215,1,dd,9.88 4.98,0.1475,0,O[C@@H]1COC(O)[C@@H]1O,InChIKey=FMAORJIQYMIRHF-HERZVMAMSA-N,1.93,-0.63,NaN,NaN,NaN,NaN,NaN,NaN,NaN,NaN,NaN,NaN,NaN,NaN
Glycyl-L-leucine,HMDB00759,4.215,1,s,NA,0.1435,0,CC(C)C[C@H](NC(=O)CN)C(O)=O,InChIKey=DKEXFJVMVGETOO-LURJTMIESA-N,-0.98,11.18,NaN,NaN,NaN,NaN,NaN,NaN,NaN,NaN,NaN,NaN,NaN,NaN
L-Fucose,HMDB00174,4.215,3,q,6.61,0.0649,0,C[C@@H]1OC(O)[C@@H](O)[C@H](O)[C@@H]1O,InChIKey=SHZGCJCMOBCMKK-DHVFOXMCSA-N,14.12,9.39,NaN,9.6,NaN,112.06,NaN,NaN,NaN,NaN,NaN,NaN,NaN,NaN
Nicotinamide ribotide,HMDB00229,4.215,1,ddd,11.93 3.89 2.45,0.2338,-1,NC(=O)C1=CC=C[N+](=C1)[C@@H]1O[C@H](COP(O)([O-])=O)[C@@H](O)[C@H]1O,InChIKey=DAYLJWODMCOQEW-TURQNECASA-N,14.55,-1,NaN,66.67,NaN,NaN,NaN,NaN,NaN,NaN,NaN,NaN,NaN,NaN
Prostaglandin D2,HMDB01403,4.225,1,m,NA,0.0154,-1,CCCCC[C@H](O)\C=C\[C@@H]1[C@@H](C\C=C/CCCC(O)=O)[C@@H](O)CC1=O,InChIKey=BHMBVRSPMRCCGG-OUTUXVNYSA-N,3.65,5.53,2.00E-04,NaN,NaN,NaN,NaN,NaN,NaN,NaN,NaN,NaN,NaN,NaN
DL-O-Phosphoserine,HMDB01721,4.225,22,m,NA,0.2882,-2,NC(COP(O)(O)=O)C(O)=O,InChIKey=BZQFBWGGLXLEPQ-UHFFFAOYSA-N,7.07,-3,NaN,NaN,NaN,NaN,NaN,NaN,NaN,NaN,NaN,NaN,NaN,NaN
Galacturonic acid,HMDB02545,4.225,11,dd,3.52 1.16,0.4881,-1,O[C@@H](C=O)[C@@H](O)[C@@H](O)[C@H](O)C(O)=O,InChIKey=IAJILQKETJEXLJ-RSJOWCBRSA-N,14.58,-3,NaN,NaN,NaN,NaN,NaN,NaN,NaN,NaN,NaN,NaN,NaN,NaN
Sucrose,HMDB00258,4.225,1,d,8.75,0.2893,0,OC[C@H]1O[C@@](CO)(O[C@H]2O[C@H](CO)[C@@H](O)[C@H](O)[C@H]2O)[C@@H](O)[C@@H]1O,InChIKey=CZMRCDWAGMRECN-UGDNZRGBSA-N,8.75,9.83,NaN,5.86275,NaN,NaN,NaN,NaN,NaN,NaN,NaN,NaN,NaN,NaN
Adenosine triphosphate,HMDB00538,4.226,1,m,NA,0.1278,-3,NC1=NC=NC2=C1N=CN2[C@@H]1O[C@H](COP(O)(=O)OP(O)(=O)OP(O)(O)=O)[C@@H](O)[C@H]1O,InChIKey=ZKHQWZAMYRWXGA-KQYNXXCUSA-N,2.83,-0.58,2271,NaN,NaN,0.47,1.85,NaN,NaN,NaN,NaN,NaN,NaN,NaN
Phosphoserine,HMDB00272,4.234,1,dd,6.36 3.34,0.0753,-2,N[C@@H](COP(O)(O)=O)C(O)=O,InChIKey=BZQFBWGGLXLEPQ-REOHCLBHSA-N,3.44,-0.35,NaN,4.201666667,NaN,NaN,4.6,NaN,NaN,NaN,NaN,NaN,NaN,NaN
Guanidinosuccinic acid,HMDB03157,4.235,1,dd,9.57 3.47,0.5284,-1,NC(=N)N[C@@H](CC(O)=O)C(O)=O,InChIKey=VVHOUVWJCQOYGG-REOHCLBHSA-N,14.58,-3,0.3518,2.74,NaN,NaN,NA,NaN,NaN,NaN,NaN,NaN,NaN,NaN
Guanosine,HMDB00133,4.235,1,q,3.73,0.1715,0,NC1=NC2=C(N=CN2[C@@H]2O[C@H](CO)[C@@H](O)[C@H]2O)C(=O)N1,InChIKey=NYHBQMYGNKIUIF-UUOKFMHZSA-N,2.48,-3.6,0.8,0.08,NaN,0.101,NaN,NaN,NaN,NaN,NaN,NaN,NaN,NaN
Uridine,HMDB00296,4.235,1,dd,NA,0.3037,0,OC[C@H]1O[C@H]([C@H](O)[C@@H]1O)N1C=CC(=O)NC1=O,InChIKey=DRTQHJPVMGBUCF-XVFCMESISA-N,3.77,-0.35,3.11,0.602,NaN,NaN,NaN,NaN,NaN,NaN,NaN,NaN,NaN,NaN
Coenzyme A,HMDB01423,4.235,2,m,NA,0.1877,-4,CC(C)(COP(O)(=O)OP(O)(=O)OC[C@H]1O[C@H]([C@H](O)[C@@H]1OP(O)(O)=O)N1C=NC2=C1N=CN=C2N)C(O)C(=O)NCCC(=O)NCCS,InChIKey=RGJOEKWQDUBAIZ-DRCCLKDXSA-N,16.92,3.22,NA,NA,NA,NA,NA,NA,NA,NA,NA,NA,NA,NA
Glucosamine 6-sulfate,HMDB00592,4.235,1,dd,11.25 5.20,0.1028,0,N[C@H]1[C@H](O)O[C@H](COS(O)(=O)=O)[C@@H](O)[C@@H]1O,InChIKey=MTDHILKWIRSIHB-QZABAPFNSA-N,3.2,4.54,NA,NA,NA,NA,NA,NA,NA,NA,NA,NA,NA,NA
Stachyose,HMDB03553,4.235,1,d,8.8,0.4696,0,OC[C@H]1O[C@@](CO)(O[C@H]2O[C@H](CO[C@H]3O[C@H](CO[C@H]4O[C@H](CO)[C@H](O)[C@H](O)[C@H]4O)[C@H](O)[C@H](O)[C@H]3O)[C@@H](O)[C@H](O)[C@H]2O)[C@@H](O)[C@@H]1O,InChIKey=UQZIYBXSHAGNOE-XNSRJBNMSA-N,14.58,-3,NA,NA,NA,NA,NA,NA,NA,NA,NA,NA,NA,NA
16a-Hydroxyestrone,HMDB00335,4.235,1,dd,NA,0.028,0,[H][C@@]12C[C@@H](O)C(=O)[C@@]1(C)CC[C@]1([H])C3=C(CC[C@@]21[H])C=C(O)C=C3,InChIKey=WPOCIZJTELRQMF-QFXBJFAPSA-N,4.48,9.66,NaN,NaN,NaN,NaN,NaN,NaN,NaN,NaN,NaN,NaN,NaN,NaN
5-Methylcytidine,HMDB00982,4.235,1,t,5.64,0.2289,0,CC1=CN([C@@H]2O[C@H](CO)[C@@H](O)[C@H]2O)C(=O)N=C1N,InChIKey=ZAYHVCMSTBRABG-JXOAFFINSA-N,4.13,5.53,NaN,NaN,NaN,NaN,NaN,NaN,NaN,NaN,NaN,NaN,NaN,NaN
Brompheniramine,HMDB01941,4.235,3,t,7.69,0.0501,1,CN(C)CCC(C1=CC=C(Br)C=C1)C1=CC=CC=N1,InChIKey=ZDIGNSYAACHWNL-UHFFFAOYSA-N,2.58,9.64,NaN,NaN,NaN,NaN,NaN,NaN,NaN,NaN,NaN,NaN,NaN,NaN
N-Acetylgalactosamine 4-sulphate,HMDB00781,4.235,1,dd,NA,0.0494,-1,CC(=O)N[C@H]1[C@H](O)O[C@H](CO)[C@H](OS(O)(=O)=O)[C@@H]1O,InChIKey=WHCJUIFHMJFEFZ-UIAUGNHASA-N,4.09,9.31,NaN,NaN,NaN,NaN,NaN,NaN,NaN,NaN,NaN,NaN,NaN,NaN
Raffinose,HMDB03213,4.235,1,d,8.8,0.6165,0,OC[C@H]1O[C@@](CO)(OC2O[C@H](COC3O[C@H](CO)[C@H](O)[C@H](O)[C@H]3O)[C@@H](O)[C@H](O)[C@H]2O)[C@@H](O)[C@@H]1O,InChIKey=MUPFEKGTMRGPLJ-BQCSWRFHSA-N,14.58,-3,NaN,NaN,NaN,NaN,NaN,NaN,NaN,NaN,NaN,NaN,NaN,NaN
Ureidosuccinic acid,HMDB00828,4.235,1,br. s.,NA,0.1852,-2,NC(=O)N[C@@H](CC(O)=O)C(O)=O,InChIKey=HLKXYZVTANABHZ-REOHCLBHSA-N,10.97,7.84,NaN,NaN,NaN,NaN,NaN,NaN,NaN,NaN,NaN,NaN,NaN,NaN
Uridine 5'-diphosphate,HMDB00295,4.235,2,dd,5.01 2.86,0.4228,-2,O[C@H]1[C@@H](O)[C@@H](O[C@@H]1COP(O)(=O)OP(O)(O)=O)N1C=CC(=O)NC1=O,InChIKey=XCCTYIAWTASOJW-XVFCMESISA-N,5.25,-2.8,NaN,NaN,NaN,NaN,NaN,NaN,NaN,NaN,NaN,NaN,NaN,NaN
NAD,HMDB00902,4.24,3,m,NA,0.2353,-1,NC(=O)C1=C[N+](=CC=C1)[C@@H]1O[C@H](COP(O)(=O)OP(O)(=O)OC[C@H]2O[C@H]([C@H](O)[C@@H]2O)N2C=NC3=C2N=CN=C3N)[C@@H](O)[C@H]1O,InChIKey=BAWFJGJZGIEFAR-NNYOXOHSSA-O,4.36,11.1,24,NaN,NaN,NaN,NaN,NaN,NaN,NaN,NaN,NaN,NaN,NaN
Fructose 6-phosphate,HMDB00124,4.245,7,t,7.71,0.154,-2,OCC(=O)[C@@H](O)[C@H](O)[C@H](O)COP(O)(O)=O,InChIKey=GSXOAOHZAIYLCY-HSUXUTPPSA-N,3.78,-4,10.2,NaN,NaN,NaN,NaN,NaN,NaN,NaN,NaN,NaN,NaN,NaN
Deoxyadenosine triphosphate,HMDB01532,4.245,1,dd,6.23 3.76,0.0182,-3,NC1=NC=NC2=C1N=CN2[C@H]1C[C@H](O)[C@@H](COP(O)(=O)OP(O)(=O)OP(O)(O)=O)O1,InChIKey=SUYVUBYJARFZHO-RRKCRQDMSA-N,9.06,-4.2,NA,NA,NA,NA,NA,NA,NA,NA,NA,NA,NA,NA
NADP,HMDB00217,4.245,2,m,NA,0.1872,-3,NC(=O)C1=C[N+](=CC=C1)[C@@H]1O[C@H](CO[P@](O)(=O)O[P@](O)(=O)OC[C@H]2O[C@H]([C@H](OP(O)(O)=O)[C@@H]2O)N2C=NC3=C(N)N=CN=C23)[C@@H](O)[C@H]1O,InChIKey=XJLXINKUBYWONI-NNYOXOHSSA-O,4.48,-2.8,NA,NA,NA,NA,NA,NA,NA,NA,NA,NA,NA,NA
Cytidine monophosphate,HMDB00095,4.245,1,d,2.25,0.29,-2,NC1=NC(=O)N(C=C1)[C@@H]1O[C@H](COP(O)(O)=O)[C@@H](O)[C@H]1O,InChIKey=IERHLVCPSMICTF-XVFCMESISA-N,11.62,-3.2,NaN,NaN,NaN,NaN,NaN,NaN,NaN,NaN,NaN,NaN,NaN,NaN
Uridine diphosphate glucose,HMDB00286,4.245,3,m,NA,0.3424,-2,OC[C@@H]1OC(OP(O)(=O)OP(O)(=O)OC[C@@H]2O[C@@H]([C@@H](O)[C@H]2O)N2C=CC(=O)NC2=O)[C@@H](O)[C@H](O)[C@H]1O,InChIKey=HSCJRCZFDFQWRP-LPTOLDDLSA-N,18.3,0.7,NaN,NaN,NaN,NaN,NaN,NaN,NaN,NaN,NaN,NaN,NaN,NaN
Ribothymidine,HMDB00884,4.248,1,dd,NA,0.2391,0,CC1=CN([C@@H]2O[C@H](CO)[C@@H](O)[C@H]2O)C(=O)NC1=O,InChIKey=DWRXFEITVBNRMK-JXOAFFINSA-N,0.83,9.06,NaN,NaN,NaN,NaN,NaN,NaN,NaN,NaN,NaN,NaN,NaN,NaN
Uridine diphosphate-N-acetylglucosamine,HMDB00290,4.25,1,m,NA,0.0377,-2,CC(=O)N[C@@H]1[C@@H](O)[C@H](O)[C@@H](CO)O[C@@H]1OP(O)(=O)OP(O)(=O)OC[C@H]1O[C@H]([C@H](O)[C@@H]1O)N1C=CC(=O)NC1=O,InChIKey=LFTYTUAZOPRMMI-CFRASDGPSA-N,4.67,-0.88,NaN,NaN,NaN,NaN,NaN,NaN,NaN,NaN,NaN,NaN,NaN,NaN
Adenosine phosphosulfate,HMDB01003,4.255,2,dd,5.09 2.94,0.3206,-2,NC1=NC=NC2=C1N=CN2[C@@H]1O[C@H](COP(O)(=O)OS(O)(=O)=O)[C@@H](O)[C@H]1O,InChIKey=IRLPACMLTUPBCL-KQYNXXCUSA-N,1.77,-3.2,NA,NA,NA,NA,NA,NA,NA,NA,NA,NA,NA,NA
Chlorpheniramine,HMDB01944,4.255,1,t,7.82,0.0499,1,CN(C)CCC(C1=CC=C(Cl)C=C1)C1=CC=CC=N1,InChIKey=SOYKEARSMXGVTM-UHFFFAOYSA-N,1.87,10,NA,NA,NA,NA,NA,NA,NA,NA,NA,NA,NA,NA
Galactonic acid,HMDB00565,4.255,1,d,1.54,0.5448,-1,OC[C@@H](O)[C@H](O)[C@H](O)[C@@H](O)C(O)=O,InChIKey=RGHNJXZEOKUKBD-MGCNEYSASA-N,3.77,-2.6,NaN,NaN,NaN,NaN,NaN,NaN,NaN,NaN,NaN,NaN,NaN,NaN
Guanosine triphosphate,HMDB01273,4.255,0,ddd,NA,0.023,-3,NC1=NC2=C(N=CN2[C@@H]2O[C@H](COP(O)(=O)OP(O)(=O)OP(O)(O)=O)[C@@H](O)[C@H]2O)C(=O)N1,InChIKey=XKMLYUALXHKNFT-UUOKFMHZSA-N,12.43,-1.2,NaN,NaN,NaN,NaN,1.83,NaN,NaN,NaN,NaN,NaN,NaN,NaN
Parathion,HMDB01355,4.255,4,m,NA,0.0174,0,CCOP(=S)(OCC)OC1=CC=C(C=C1)[N+]([O-])=O,InChIKey=LCCNCVORNKJIRZ-UHFFFAOYSA-N,10.71,9.71,NaN,NaN,NaN,NaN,NaN,NaN,NaN,NaN,NaN,NaN,NaN,NaN
L-Threonine,HMDB00167,4.259,15,m,NA,NA,0,C[C@@H](O)[C@H](N)C(O)=O,InChIKey=AYFVYJQAPQTCCC-GBXIJSLDSA-N,2.93,10,157.5,9.994,NaN,NA,25.0125,NaN,NaN,NaN,NaN,NaN,NaN,NaN
Cytidine triphosphate,HMDB00082,4.261,3,m,NA,0.8627,-3,NC1=NC(=O)N(C=C1)[C@@H]1O[C@H](COP(O)(=O)OP(O)(=O)OP(O)(O)=O)[C@@H](O)[C@H]1O,InChIKey=PCDQPRRSZKQHHS-XVFCMESISA-N,3.57,-3,NaN,NaN,NaN,NaN,NaN,NaN,NaN,NaN,NaN,NaN,NaN,NaN
Riboflavin,HMDB00244,4.265,1,m,NA,0.0876,-1,CC1=C(C)C=C2N(C[C@H](O)[C@H](O)[C@H](O)CO)C3=NC(=O)NC(=O)C3=NC2=C1,InChIKey=AUNGANRZJHBGPY-SCRDCRAPSA-N,4.17,-3,0.015,0.18,NaN,0.058,NaN,NaN,NaN,NaN,NaN,NaN,NaN,NaN
Xanthosine,HMDB00299,4.265,13,q,2.78,0.2687,0,OC[C@H]1O[C@H]([C@H](O)[C@@H]1O)N1C=NC2=C1N=C(O)N=C2O,InChIKey=UBORTCNDUKBEOP-UUOKFMHZSA-N,4.51,-0.61,5.08,NaN,NaN,NaN,NaN,NaN,NaN,NaN,NaN,NaN,NaN,NaN
17-Epiestriol,HMDB00356,4.265,1,m,NA,0.0726,0,C[C@]12CCC3C(CCC4=C3C=CC(O)=C4)C1C[C@@H](O)[C@H]2O,InChIKey=PROQIPRRNZUXQM-MAHASAQBSA-N,4.09,-3.5,NA,NA,NA,NA,NA,NA,NA,NA,NA,NA,NA,NA
Citicoline,HMDB01413,4.265,2,m,NA,0.0359,-1,C[N+](C)(C)CCOP([O-])(=O)OP(O)(=O)OC[C@H]1O[C@H]([C@H](O)[C@@H]1O)N1C=CC(N)=NC1=O,InChIKey=RZZPDXZPRHQOCG-OJAKKHQRSA-N,2.12,-3.8,NA,NA,NA,NA,NA,NA,NA,NA,NA,NA,NA,NA
Argininosuccinic acid,HMDB00052,4.265,1,dd,9.60 3.33,0.2693,-1,N[C@@H](CCCNC(=N)N[C@@H](CC(O)=O)C(O)=O)C(O)=O,InChIKey=KDZOASGQNOPSCU-WDSKDSINSA-N,0.83,-9.9,NaN,0.0032,NaN,NaN,NaN,NaN,NaN,NaN,NaN,NaN,NaN,NaN
Chlorogenic acid,HMDB03164,4.265,1,d,2.88,0.1323,-1,O[C@@H]1C[C@](O)(C[C@@H](OC(=O)\C=C\C2=CC(O)=C(O)C=C2)[C@@H]1O)C(O)=O,InChIKey=CWVRJTMFETXNAD-JUHZACGLSA-N,14.58,-3,NaN,NaN,NaN,NaN,NaN,NaN,NaN,NaN,NaN,NaN,NaN,NaN
Galactaric acid,HMDB00639,4.265,1,s,NA,0.5563,-2,O[C@@H]([C@@H](O)[C@H](O)C(O)=O)[C@@H](O)C(O)=O,InChIKey=DSLZVSRJTYRBFB-DUHBMQHGSA-N,14.58,-3,NaN,NaN,NaN,NaN,NaN,NaN,NaN,NaN,NaN,NaN,NaN,NaN
Inosine,HMDB00195,4.272,1,dd,7.05 3.09,0.085,-1,OC[C@H]1O[C@H]([C@H](O)[C@@H]1O)N1C=NC2=C1N=CNC2=O,InChIKey=UGQMRVRMYYASKQ-KQYNXXCUSA-N,1.73,9.73,1.3875,0.67,NaN,0.37,0.64,NaN,NaN,NaN,NaN,NaN,NaN,NaN
Uridine 5'-monophosphate,HMDB00288,4.275,1,m,NA,NA,-2,O[C@H]1[C@@H](O)[C@@H](O[C@@H]1COP(O)(O)=O)N1C=CC(=O)NC1=O,InChIKey=DJJCXFVJDGTHFX-XVFCMESISA-N,4.67,2.02,184,NaN,NaN,0.21,NaN,NaN,NaN,NaN,NaN,NaN,NaN,NaN