Metabolite,HMDB Name,Shift (ppm),Hs,Type,J (Hz),Height,Physiological Charge,SMILES,InChlKey,pKa (Strongest Acidic),pKa (Strongest Basic),Blood,Urine,Feces,Saliva,Cerebrospinal Fluid (CSF),Amniotic Fluid,Aqueous Humour,Ascites Fluid,Breast Milk,Lymph,Sweat,Tears
(+)-(S)-Carvone,HMDB04487,2.355,1,br. s.,NA,0.027,0,CC(=C)[C@H]1CC=C(C)C(=O)C1,InChIKey=ULDHMXUKGWMISQ-VIFPVBQESA-N,1.86,-6.7,NaN,NaN,NaN,NaN,NaN,NaN,NaN,NaN,NaN,NaN,NaN,NaN
2-Methoxyestrone,HMDB00010,2.355,1,m,NA,0.0171,0,[H][C@@]12CCC(=O)[C@@]1(C)CC[C@]1([H])C3=C(CC[C@@]21[H])C=C(O)C(OC)=C3,InChIKey=WHEUWNKSCXYKBU-QPWUGHHJSA-N,1.87,10,NaN,0.005,NaN,NaN,NaN,NaN,NaN,NaN,NaN,NaN,NaN,NaN
3b-Hydroxy-5-cholenoic acid,HMDB00308,2.355,2,ddd,15.69 10.29 5.17,0.0878,-1,[H][C@@]12CC[C@H]([C@H](C)CCC(O)=O)[C@@]1(C)CC[C@@]1([H])[C@@]2([H])CC=C2C[C@@H](O)CC[C@]12C,InChIKey=HIAJCGFYHIANNA-QIZZZRFXSA-N,10.29,-3,NaN,NaN,NaN,NaN,NaN,NaN,NaN,NaN,NaN,NaN,NaN,NaN
3-Indolebutyric acid,HMDB02096,2.355,2,t,7.37,0.9731,-1,OC(=O)CCCC1=CNC2=CC=CC=C12,InChIKey=JTEDVYBZBROSJT-UHFFFAOYSA-N,3.62,-3.6,NaN,NaN,NaN,NaN,NaN,NaN,NaN,NaN,NaN,NaN,NaN,NaN
8.11.14-Eicosatrienoic acid,HMDB02925,2.355,2,t,7.51,0.3151,-1,CCCCC\C=C/C\C=C/C\C=C/CCCCCCC(O)=O,InChIKey=HOBAELRKJCKHQD-QNEBEIHSSA-N,1.86,-3,NaN,NaN,NaN,NaN,NaN,NaN,NaN,NaN,NaN,NaN,NaN,NaN
Elaidic acid,HMDB00573,2.355,6,t,7.53,0.3096,-1,CCCCCCCC\C=C\CCCCCCCC(O)=O,InChIKey=ZQPPMHVWECSIRJ-MDZDMXLPSA-N,2.91,-3,NaN,NaN,NaN,NaN,NaN,NaN,NaN,NaN,NaN,NaN,NaN,NaN
Nervonic acid,HMDB02368,2.355,2,t,NA,0.0433,-1,CCCCCCCC\C=C/CCCCCCCCCCCCCC(O)=O,InChIKey=GWHCXVQVJPWHRF-KTKRTIGZSA-N,13.78,10,NaN,NaN,NaN,NaN,NaN,NaN,NaN,NaN,NaN,NaN,NaN,NaN
Pentacosanoic acid,HMDB02361,2.355,2,t,NA,0.0013,-1,CCCCCCCCCCCCCCCCCCCCCCCCC(O)=O,InChIKey=MWMPEAHGUXCSMY-UHFFFAOYSA-N,2.67,10,NaN,NaN,NaN,NaN,NaN,NaN,NaN,NaN,NaN,NaN,NaN,NaN
Tricosanoic acid,HMDB01160,2.355,2,t,NA,0.0601,-1,CCCCCCCCCCCCCCCCCCCCCCC(O)=O,InChIKey=XEZVDURJDFGERA-UHFFFAOYSA-N,1.77,9.47,NaN,NaN,NaN,NaN,NaN,NaN,NaN,NaN,NaN,NaN,NaN,NaN
L-Glutamic acid,HMDB00148,2.356,39,m,NA,NA,-1,N[C@@H](CCC(O)=O)C(O)=O,InChIKey=WHUUTDBJXJRKMK-VKHMYHEASA-N,4.95,-5.5,97.4,NA,NaN,NA,10.715,NaN,NaN,NaN,NaN,NaN,NaN,NaN
Thymidine 5'-triphosphate,HMDB01342,2.363,2,m,NA,0.0988,-3,CC1=CN([C@H]2C[C@H](O)[C@@H](COP(O)(=O)OP(O)(=O)OP(O)(O)=O)O2)C(=O)NC1=O,InChIKey=NHVNXKFIZYSCEB-XLPZGREQSA-N,1.38,-3.7,NA,NA,NA,NA,NA,NA,NA,NA,NA,NA,NA,NA
17a-Ethynylestradiol,HMDB01926,2.365,8,m,NA,0.2,0,[H][C@@]12CC[C@@](O)(C#C)[C@@]1(C)CC[C@]1([H])C3=CC=C(O)C=C3CC[C@@]21[H],InChIKey=BFPYWIDHMRZLRN-SLHNCBLASA-N,18.38,9.27,0.00016,NaN,NaN,NaN,NaN,NaN,NaN,NaN,NaN,NaN,NaN,NaN
Heptadecanoic acid,HMDB02259,2.365,2,t,7.54,0.1268,-1,CCCCCCCCCCCCCCCCC(O)=O,InChIKey=KEMQGTRYUADPNZ-UHFFFAOYSA-N,11.76,4.24,1.545,NaN,NaN,NaN,NaN,NaN,NaN,NaN,NaN,NaN,NaN,NaN
Cholesterol sulfate,HMDB00653,2.365,1,ddd,NA,0.05,-1,[H][C@@]12CC[C@H]([C@H](C)CCCC(C)C)[C@@]1(C)CC[C@@]1([H])[C@@]2([H])CC=C2C[C@H](CC[C@]12C)OS(O)(=O)=O,InChIKey=BHYOQNUELFTYRT-DPAQBDIFSA-N,1.22,-1.3,5.4,NaN,NaN,NaN,NaN,NaN,NaN,NaN,NaN,NaN,NaN,NaN
Dodecanoic acid,HMDB00638,2.365,2,t,7.53,0.3254,-1,CCCCCCCCCCCC(O)=O,InChIKey=POULHZVOKOAJMA-UHFFFAOYSA-N,4.65,-2.2,5.82225,0.03,NaN,NaN,NaN,NaN,NaN,NaN,NaN,NaN,NaN,NaN
Alpha-Linolenic acid,HMDB01388,2.365,2,t,7.51,0.1067,-1,CC\C=C/C\C=C/C\C=C/CCCCCCCC(O)=O,InChIKey=DTOSIQBPPRVQHS-PDBXOOCHSA-N,11.32,1.82,7.383333333,NaN,NaN,NaN,NaN,NaN,NaN,NaN,NaN,NaN,NaN,NaN
L-Malic acid,HMDB00156,2.365,1,dd,15.37 10.24,0.9405,-2,O[C@@H](CC(O)=O)C(O)=O,InChIKey=BJEPYKJPYRNKOW-REOHCLBHSA-N,10.02,4.96,7.6,1.71,NaN,6.45,3,NaN,NaN,NaN,NaN,NaN,NaN,NaN
Azythromycin,HMDB01916,2.365,1,m,NA,0.0145,2,CC[C@@H]1OC(=O)[C@H](C)[C@@H](O[C@@H]2C[C@](C)(OC)[C@H](O)[C@@H](C)O2)[C@@H](C)[C@H](O[C@H]2O[C@@H](C)C[C@H]([C@@H]2O)N(C)C)[C@@](C)(O)C[C@H](C)CN(C)[C@@H](C)[C@@H](O)[C@]1(C)O,InChIKey=MQTOSJVFKKJCRP-HHZDEWPHSA-N,3.84,1.99,NA,NA,NA,NA,NA,NA,NA,NA,NA,NA,NA,NA
3-Hydroxyisovaleric acid,HMDB00754,2.365,23,s,NA,0.3248,-1,CC(C)(O)CC(O)=O,InChIKey=AXFYFNCPONWUHW-UHFFFAOYSA-N,19.09,9.79,NaN,10,NaN,NaN,4,NaN,NaN,NaN,NaN,NaN,NaN,NaN
3-Hydroxysebacic acid,HMDB00350,2.365,1,dd,NA,0.0316,-2,OC(CCCCCCC(O)=O)CC(O)=O,InChIKey=OQYZCCKCJQWHIE-UHFFFAOYSA-N,19.09,-4.9,NaN,NaN,NaN,NaN,NaN,NaN,NaN,NaN,NaN,NaN,NaN,NaN
Behenic acid,HMDB00944,2.365,2,t,7.5,0.054,-1,CCCCCCCCCCCCCCCCCCCCCC(O)=O,InChIKey=UKMSUNONTOPOIO-UHFFFAOYSA-N,11.12,-3.6,NaN,NaN,NaN,NaN,NaN,NaN,NaN,NaN,NaN,NaN,NaN,NaN
Epitestosterone,HMDB00628,2.365,1,m,NA,0.0466,0,[H][C@@]12CC[C@@H](O)[C@@]1(C)CC[C@@]1([H])[C@@]2([H])CCC2=CC(=O)CC[C@]12C,InChIKey=MUMGGOZAMZWBJJ-KZYORJDKSA-N,3.89,4.89,NaN,NaN,NaN,NaN,NaN,NaN,NaN,NaN,NaN,NaN,NaN,NaN
3-Hydroxysuberic acid,HMDB00325,2.366,2,m,NA,0.4617,-2,OC(CCCCC(O)=O)CC(O)=O,InChIKey=ARJZZFJXSNJKGR-UHFFFAOYSA-N,3.89,-3.4,NaN,NaN,NaN,NaN,NaN,NaN,NaN,NaN,NaN,NaN,NaN,NaN
Linoleic acid,HMDB00673,2.372,2,t,7.5,0.477,-1,CCCCC\C=C/C\C=C/CCCCCCCC(O)=O,InChIKey=OYHQOLUKZRVURQ-HZJYTTRNSA-N,9.99,9.23,48.2866,0.05,NaN,NaN,NaN,NaN,NaN,NaN,NaN,NaN,NaN,NaN
Testosterone,HMDB00234,2.372,4,m,NA,0.1248,0,[H][C@@]12CC[C@H](O)[C@@]1(C)CC[C@@]1([H])[C@@]2([H])CCC2=CC(=O)CC[C@]12C,InChIKey=MUMGGOZAMZWBJJ-DYKIIFRCSA-N,4.56,-2.8,NaN,1.07,NaN,NaN,NaN,NaN,NaN,NaN,NaN,NaN,NaN,NaN
Pentadecanoic acid,HMDB00826,2.375,2,t,7.54,0.155,-1,CCCCCCCCCCCCCCC(O)=O,InChIKey=WQEPLUUGTLDZJY-UHFFFAOYSA-N,1.02,3.68,1.561666667,NaN,NaN,NaN,NaN,NaN,NaN,NaN,NaN,NaN,NaN,NaN
Vaccenic acid,HMDB03231,2.375,2,t,NA,0.3801,-1,CCCCCC\C=C/CCCCCCCCCC(O)=O,InChIKey=UWHZIFQPPBDJPM-FPLPWBNLSA-N,11.41,-2.2,10.7,NaN,NaN,NaN,NaN,NaN,NaN,NaN,NaN,NaN,NaN,NaN
Myristic acid,HMDB00806,2.375,1,t,7.53,0.1402,-1,CCCCCCCCCCCCCC(O)=O,InChIKey=TUNFSRHWOTWDNC-UHFFFAOYSA-N,18.36,4.95,10.84733333,0.06,NaN,NaN,NaN,NaN,NaN,NaN,NaN,NaN,NaN,NaN
Palmitic acid,HMDB00220,2.375,4,t,7.53,0.1177,-1,CCCCCCCCCCCCCCCC(O)=O,InChIKey=IPCSVZSSVZVIGE-UHFFFAOYSA-N,12.58,-1.4,61.8,5.65,NaN,11.09,NaN,NaN,NaN,NaN,NaN,NaN,NaN,NaN
5-Thymidylic acid,HMDB01227,2.375,3,dd,NA,0.2572,-2,CC1=CN([C@H]2C[C@H](O)[C@@H](COP(O)(O)=O)O2)C(=O)NC1=O,InChIKey=GYOZYWVXFNDGLU-XLPZGREQSA-N,9.56,-2.9,NA,NA,NA,NA,NA,NA,NA,NA,NA,NA,NA,NA
Medroxyprogesterone,HMDB01939,2.375,2,m,NA,0.0235,0,[H][C@@]12CC[C@](O)(C(C)=O)[C@@]1(C)CC[C@@]1([H])[C@@]2([H])C[C@H](C)C2=CC(=O)CC[C@]12C,InChIKey=FRQMUZJSZHZSGN-HBNHAYAOSA-N,4.94,1.15,NA,NA,NA,NA,NA,NA,NA,NA,NA,NA,NA,NA
Isocaproic acid,HMDB00689,2.375,2,t,NA,0.3077,-1,CC(C)CCC(O)=O,InChIKey=FGKJLKRYENPLQH-UHFFFAOYSA-N,4.15,0.084,NaN,NaN,NaN,43.65,NaN,NaN,NaN,NaN,NaN,NaN,NaN,NaN
Malic acid,HMDB00744,2.375,1,dd,15.38 10.12,0.9142,-2,OC(CC(O)=O)C(O)=O,InChIKey=BJEPYKJPYRNKOW-UHFFFAOYSA-N,1.23,-0.58,NaN,0,NaN,5.12,NaN,NaN,NaN,NaN,NaN,NaN,NaN,NaN
Nonadecanoic acid,HMDB00772,2.375,2,t,7.53,0.0881,-1,CCCCCCCCCCCCCCCCCCC(O)=O,InChIKey=ISYWECDDZWTKFF-UHFFFAOYSA-N,12.58,-3,NaN,NaN,NaN,NaN,NaN,NaN,NaN,NaN,NaN,NaN,NaN,NaN
Ureidopropionic acid,HMDB00026,2.375,3,t,6.75,1,-1,NC(=O)NCCC(O)=O,InChIKey=JSJWCHRYRHKBBW-UHFFFAOYSA-N,10.81,-2.9,NaN,1.733333333,NaN,NaN,NaN,NaN,NaN,NaN,NaN,NaN,NaN,NaN
Thymidine,HMDB00273,2.381,1,dd,6.63 5.53,0.2847,0,CC1=CN([C@H]2C[C@H](O)[C@@H](CO)O2)C(=O)NC1=O,InChIKey=IQFYYKKMVGJFEH-XLPZGREQSA-N,18.3,-5.5,0.205,6.87,NaN,NaN,NaN,NaN,NaN,NaN,NaN,NaN,NaN,NaN
Aldosterone,HMDB00037,2.385,6,m,NA,0.0378,0,C[C@]12CCC(=O)C=C1CCC1C3CC[C@H](C(=O)CO)[C@]3(C[C@H](O)C21)C=O,InChIKey=PQSUYGKTWSAVDQ-SRPWZAMTSA-N,4.03,-3,6.80E-05,0.01,NaN,NA,NaN,NaN,NaN,NaN,NaN,NaN,NaN,NaN
Progesterone,HMDB01830,2.385,1,m,NA,0.121,0,[H][C@@]12CC[C@H](C(C)=O)[C@@]1(C)CC[C@@]1([H])[C@@]2([H])CCC2=CC(=O)CC[C@]12C,InChIKey=RJKFOVLPORLFTN-LEKSSAKUSA-N,11.17,-6.2,0.0025,NaN,NaN,NaN,NaN,NaN,NaN,NaN,NaN,NaN,NaN,NaN
Glycocholic acid,HMDB00138,2.385,1,m,NA,0.0536,-1,[H][C@@]12CC[C@H]([C@H](C)CCC(=O)NCC(O)=O)[C@@]1(C)[C@@H](O)C[C@@]1([H])[C@@]2([H])[C@H](O)CC2C[C@H](O)CC[C@]12C,InChIKey=RFDAIACWWDREDC-MZMBZMQMSA-N,4.55,8.85,0.06,0.42,NaN,NaN,NaN,NaN,NaN,NaN,NaN,NaN,NaN,NaN
L-Palmitoylcarnitine,HMDB00222,2.385,4,m,NA,0.0325,0,CCCCCCCCCCCCCCCC(=O)O[C@H](CC([O-])=O)C[N+](C)(C)C,InChIKey=XOMRRQXKHMYMOC-OAQYLSRUSA-N,1.62,-0.58,0.113,0.5,NaN,0.034,NaN,NaN,NaN,NaN,NaN,NaN,NaN,NaN
Glutaric acid,HMDB00661,2.385,2,t,7.46,1,-2,OC(=O)CCCC(O)=O,InChIKey=JFCQEDHGNNZCLN-UHFFFAOYSA-N,4.95,4.96,0.8,1.3,NaN,NaN,NaN,NaN,NaN,NaN,NaN,NaN,NaN,NaN
Oleic acid,HMDB00207,2.385,2,t,NA,0.4755,-1,CCCCCCCC\C=C/CCCCCCCC(O)=O,InChIKey=ZQPPMHVWECSIRJ-KTKRTIGZSA-N,1.64,-7.2,72.13575,2.68,NaN,NaN,NaN,NaN,NaN,NaN,NaN,NaN,NaN,NaN
Dodecanedioic acid,HMDB00623,2.385,4,t,7.27,0.0173,-2,OC(=O)CCCCCCCCCCC(O)=O,InChIKey=TVIDDXQYHWJXFK-UHFFFAOYSA-N,4.79,-0.78,219.7,NaN,NaN,NaN,NaN,NaN,NaN,NaN,NaN,NaN,NaN,NaN
3-Hydroxydodecanedioic acid,HMDB00413,2.385,1,m,NA,0.2082,-2,OC(CCCCCCCCC(O)=O)CC(O)=O,InChIKey=FYVQCLGZFXHEGL-UHFFFAOYSA-N,18.3,9.59,NaN,NaN,NaN,NaN,NaN,NaN,NaN,NaN,NaN,NaN,NaN,NaN
Cholestenone,HMDB00921,2.385,4,m,NA,0.1906,0,[H][C@@]12CC[C@H]([C@H](C)CCCC(C)C)[C@@]1(C)CC[C@@]1([H])[C@@]2([H])CCC2=CC(=O)CC[C@]12C,InChIKey=NYOXRYYXRWJDKP-GYKMGIIDSA-N,0.83,7.72,NaN,NaN,NaN,NaN,NaN,NaN,NaN,NaN,NaN,NaN,NaN,NaN
Gamma-Caprolactone,HMDB03843,2.385,1,m,NA,0.0661,0,CCC1CCC(=O)O1,InChIKey=JBFHTYHTHYHCDJ-UHFFFAOYSA-N,14.58,-3,NaN,NaN,NaN,NaN,NaN,NaN,NaN,NaN,NaN,NaN,NaN,NaN
Homocarnosine,HMDB00745,2.385,2,m,NA,0.2264,0,NCCCC(=O)N[C@@H](CC1=CNC=N1)C(O)=O,InChIKey=CCLQKVKJOGVQLU-QMMMGPOBSA-N,-1.3,-1.2,NaN,NaN,NaN,NaN,NaN,NaN,NaN,NaN,NaN,NaN,NaN,NaN
Corticosterone,HMDB01547,2.395,1,dt,NA,0.0234,0,[H][C@@]12CC[C@H](C(=O)CO)[C@@]1(C)C[C@H](O)[C@@]1([H])[C@@]2([H])CCC2=CC(=O)CC[C@]12C,InChIKey=OMFXVFTZEKFJBZ-HJTSIMOOSA-N,2.79,-0.13,0.027,NaN,NaN,NaN,NaN,NaN,NaN,NaN,NaN,NaN,NaN,NaN
Cortisone,HMDB02802,2.395,3,m,NA,0.1034,0,[H][C@@]12CC[C@](O)(C(=O)CO)[C@@]1(C)CC(=O)[C@@]1([H])[C@@]2([H])CCC2=CC(=O)CC[C@]12C,InChIKey=MFYSYFVPBJMHGN-ZPOLXVRWSA-N,17.79,2.77,0.0624,0.011,NaN,NaN,NaN,NaN,NaN,NaN,NaN,NaN,NaN,NaN
L-Hexanoylcarnitine,HMDB00756,2.395,2,t,NA,0.076,0,CCCCCC(=O)O[C@H](CC([O-])=O)C[N+](C)(C)C,InChIKey=VVPRQWTYSNDTEA-LLVKDONJSA-N,4.17,-3.3,0.08,NaN,NaN,NaN,NaN,NaN,NaN,NaN,NaN,NaN,NaN,NaN
Levofloxacin,HMDB01929,2.395,3,s,NA,0.5683,-1,C[C@H]1COC2=C(N3CCN(C)CC3)C(F)=CC3=C2N1C=C(C(O)=O)C3=O,InChIKey=GSDSWSVVBLHKDQ-JTQLQIEISA-N,3.51,-6.3,0.135,NaN,NaN,NaN,NaN,NaN,NaN,NaN,NaN,NaN,NaN,NaN
L(-)-Nicotine pestanal,HMDB01934,2.395,1,m,NA,0.0567,1,CN1CCC[C@H]1C1=CN=CC=C1,InChIKey=SNICXCGAKADSCV-JTQLQIEISA-N,1.87,10,0.745,NaN,NaN,NaN,NaN,NaN,NaN,NaN,NaN,NaN,NaN,NaN
Azythromycin,HMDB01916,2.395,1,m,NA,0.0121,2,CC[C@@H]1OC(=O)[C@H](C)[C@@H](O[C@@H]2C[C@](C)(OC)[C@H](O)[C@@H](C)O2)[C@@H](C)[C@H](O[C@H]2O[C@@H](C)C[C@H]([C@@H]2O)N(C)C)[C@@](C)(O)C[C@H](C)CN(C)[C@@H](C)[C@@H](O)[C@]1(C)O,InChIKey=MQTOSJVFKKJCRP-HHZDEWPHSA-N,3.84,1.99,NA,NA,NA,NA,NA,NA,NA,NA,NA,NA,NA,NA
Benzenebutanoic acid,HMDB00543,2.395,2,t,7.44,0.8746,-1,OC(=O)CCCC1=CC=CC=C1,InChIKey=OBKXEAXTFZPCHS-UHFFFAOYSA-N,3.47,8.99,NA,NA,NA,NA,NA,NA,NA,NA,NA,NA,NA,NA
2-Hydroxyadipic acid,HMDB00321,2.395,26,m,NA,1,-2,OC(CCCC(O)=O)C(O)=O,InChIKey=OTTXIFWBPRRYOG-UHFFFAOYSA-N,12.51,-0.35,NaN,NaN,NaN,NaN,NaN,NaN,NaN,NaN,NaN,NaN,NaN,NaN
2-Methylhippuric acid,HMDB11723,2.395,3,s,NA,1,-1,CC1=CC=CC=C1C(=O)NCC(O)=O,InChIKey=YOEBAVRJHRCKRE-UHFFFAOYSA-N,1.86,-6.7,NaN,NaN,NaN,NaN,NaN,NaN,NaN,NaN,NaN,NaN,NaN,NaN
3-Methyladipic acid,HMDB00555,2.395,1,m,NA,0.5609,-2,C[C@@H](CCC(O)=O)CC(O)=O,InChIKey=SYEOWUNSTUDKGM-YFKPBYRVSA-N,1.19,-3.8,NaN,6.05,NaN,NaN,NaN,NaN,NaN,NaN,NaN,NaN,NaN,NaN
Cyclohexanone,HMDB03315,2.395,4,t,6.79,1,0,O=C1CCCCC1,InChIKey=JHIVVAPYMSGYDF-UHFFFAOYSA-N,14.58,-3,NaN,NaN,NaN,NaN,NaN,NaN,NaN,NaN,NaN,NaN,NaN,NaN
Deoxycorticosterone,HMDB00016,2.395,2,m,NA,0.1012,0,[H][C@@]12CC[C@H](C(=O)CO)[C@@]1(C)CC[C@@]1([H])[C@@]2([H])CCC2=CC(=O)CC[C@]12C,InChIKey=ZESRJSPZRDMNHY-YFWFAHHUSA-N,-1.9,-2.7,NaN,NaN,NaN,NaN,NaN,NaN,NaN,NaN,NaN,NaN,NaN,NaN
Deoxycytidine,HMDB00014,2.395,2,m,NA,0.5588,0,NC1=NC(=O)N(C=C1)[C@H]1C[C@H](O)[C@@H](CO)O1,InChIKey=CKTSBUTUHBMZGZ-SHYZEUOFSA-N,10.39,9.5,NaN,NaN,NaN,NaN,NaN,NaN,NaN,NaN,NaN,NaN,NaN,NaN
Ergocalciferol,HMDB00900,2.395,1,m,NA,0.0042,0,CC(C)[C@@H](C)\C=C\[C@@H](C)[C@H]1CC[C@@]2([H])\C(CCC[C@]12C)=C\C=C1\C[C@@H](O)CCC1=C,InChIKey=MECHNRXZTMCUDQ-RKHKHRCZSA-N,3.25,-6.3,NaN,NaN,NaN,0.008,NaN,NaN,NaN,NaN,NaN,NaN,NaN,NaN
Oxalacetic acid,HMDB00223,2.395,4,s,NA,1,-2,OC(=O)CC(=O)C(O)=O,InChIKey=KHPXUQMNIQBQEV-UHFFFAOYSA-N,4.25,-2.9,NaN,NaN,NaN,NaN,17.15,NaN,NaN,NaN,NaN,NaN,NaN,NaN
Flavin Mononucleotide,HMDB01520,2.405,12,s,NA,0.1545,-3,CC1=CC2=C(C=C1C)N(C[C@H](O)[C@H](O)[C@H](O)COP(O)(O)=O)C1=NC(=O)NC(=O)C1=N2,InChIKey=FVTCRASFADXXNN-SCRDCRAPSA-N,0.83,-3.6,0.0075,NaN,NaN,NaN,NaN,NaN,NaN,NaN,NaN,NaN,NaN,NaN
FAD,HMDB01248,2.405,3,s,NA,0.9905,-3,CC1=CC2=C(C=C1C)N(C[C@H](O)[C@H](O)[C@H](O)COP(O)(=O)OP(O)(=O)OC[C@H]1O[C@H]([C@H](O)[C@@H]1O)N1C=NC3=C1N=CN=C3N)C1=NC(=O)NC(=O)C1=N2,InChIKey=VWWQXMAJTJZDQX-UYBVJOGSSA-N,10.59,-2.6,0.075,NaN,NaN,NaN,NaN,NaN,NaN,NaN,NaN,NaN,NaN,NaN
Iso-Valeraldehyde,HMDB06478,2.405,2,dd,6.90 2.50,0.14,0,CC(C)CC=O,InChIKey=YGHRJJRRZDOVPD-UHFFFAOYSA-N,1.89,-6.6,0.11,NaN,NaN,NaN,14.9,NaN,NaN,NaN,NaN,NaN,NaN,NaN
Succinic acid,HMDB00254,2.405,93,s,NA,1,-2,OC(=O)CCC(O)=O,InChIKey=KDYFGRWQOYBRFD-UHFFFAOYSA-N,11.66,-3,16.1,4.758333333,NaN,1192.575,20.14,NaN,NaN,NaN,NaN,NaN,NaN,NaN
Pyroglutamic acid,HMDB00267,2.405,31,m,NA,0.7466,-1,OC(=O)[C@@H]1CCC(=O)N1,InChIKey=ODHCTXKNWHHXJC-VKHMYHEASA-N,12.7,-0.88,19.5,14,NaN,30.19,47,NaN,NaN,NaN,NaN,NaN,NaN,NaN
17-alpha.20-alpha-Dihydroxypregn-4-en-3-one,HMDB11653,2.405,2,m,NA,0.0885,0,[H][C@@]12CC[C@](O)([C@H](C)O)[C@@]1(C)CC[C@@]1([H])[C@@]2([H])CCC2=CC(=O)CC[C@]12C,InChIKey=MASCESDECGBIBB-HNXXTFFGSA-N,1.86,-3,NA,NA,NA,NA,NA,NA,NA,NA,NA,NA,NA,NA
5alpha-Cholestanone,HMDB00871,2.405,1,m,NA,0.0763,0,[H][C@@]1(CC[C@@]2([H])[C@]3([H])CC[C@@]4([H])CC(=O)CC[C@]4(C)[C@@]3([H])CC[C@]12C)[C@H](C)CCCC(C)C,InChIKey=PESKGJQREUXSRR-UXIWKSIVSA-N,1.78,4.8,NA,NA,NA,NA,NA,NA,NA,NA,NA,NA,NA,NA
FADH,HMDB01197,2.405,3,s,NA,0.9905,-2,CC1=CC2=C(C=C1C)N(C[C@H](O)[C@H](O)[C@H](O)COP(O)(=O)OP(O)(=O)OC[C@H]1O[C@H]([C@H](O)[C@@H]1O)N1C=NC3=C1N=CN=C3N)C1=C(N2)C(=O)NC(=O)N1,InChIKey=YPZRHBJKEMOYQH-UYBVJOGSSA-N,3.63,-3.4,NA,NA,NA,NA,NA,NA,NA,NA,NA,NA,NA,NA
Androstanedione,HMDB00899,2.405,1,dd,13.81 6.51,0.0633,0,[H][C@@]12CCC(=O)[C@@]1(C)CC[C@@]1([H])[C@@]2([H])CC[C@@]2([H])CC(=O)CC[C@]12C,InChIKey=RAJWOBJTTGJROA-WZNAKSSCSA-N,1.86,-3,NaN,NaN,NaN,NaN,NaN,NaN,NaN,NaN,NaN,NaN,NaN,NaN
Pyrrolidonecarboxylic acid,HMDB00805,2.405,2,m,NA,1,-1,OC(=O)C1CCC(=O)N1,InChIKey=ODHCTXKNWHHXJC-UHFFFAOYSA-N,1.2,4.95,NaN,NaN,NaN,0.618,NaN,NaN,NaN,NaN,NaN,NaN,NaN,NaN
Saccharopine,HMDB00279,2.405,2,t,6.84,0.3191,-1,N[C@@H](CCCCN[C@@H](CCC(O)=O)C(O)=O)C(O)=O,InChIKey=ZDGJAHTZVHVLOT-YUMQZZPRSA-N,4.48,-2.8,NaN,NaN,NaN,NaN,NaN,NaN,NaN,NaN,NaN,NaN,NaN,NaN
Levulinic acid,HMDB00720,2.407,2,t,6.8,0.4655,-1,CC(=O)CCC(O)=O,InChIKey=JOOXCMJARBKPKM-UHFFFAOYSA-N,-0.99,-0.12,NaN,NaN,NaN,NaN,NaN,NaN,NaN,NaN,NaN,NaN,NaN,NaN
Doxylamine,HMDB01936,2.413,6,s,NA,1,1,CN(C)CCOC(C)(C1=CC=CC=C1)C1=NC=CC=C1,InChIKey=HCFDWZZGGLSKEP-UHFFFAOYSA-N,4.63,8.61,NA,NA,NA,NA,NA,NA,NA,NA,NA,NA,NA,NA
Vitamin D3,HMDB00876,2.415,1,m,NA,0.0156,0,CC(C)CCC[C@@H](C)[C@H]1CCC2\C(CCC[C@]12C)=C\C=C1\C[C@@H](O)CCC1=C,InChIKey=QYSXJUFSXHHAJI-QWSSABAFSA-N,1.1,-3.6,0.03705,NaN,NaN,0.006,NaN,NaN,NaN,NaN,NaN,NaN,NaN,NaN
Succinylacetone,HMDB00635,2.415,1,t,6.47,0.3575,-1,CC(=O)CC(=O)CCC(O)=O,InChIKey=WYEPBHZLDUPIOD-UHFFFAOYSA-N,4.02,-1.4,0.0815,NaN,NaN,NaN,NaN,0.003,NaN,NaN,NaN,NaN,NaN,NaN
Decanal,HMDB11623,2.415,2,td,NA,0.0366,0,CCCCCCCCCC=O,InChIKey=KSMVZQYAVGTKIV-UHFFFAOYSA-N,1.86,-3,0.11,NaN,NaN,NaN,NaN,NaN,NaN,NaN,NaN,NaN,NaN,NaN
Decanoylcarnitine,HMDB00651,2.415,2,t,7.53,0.1034,0,CCCCCCCCCC(=O)OC(CC([O-])=O)C[N+](C)(C)C,InChIKey=LZOSYCMHQXPBFU-UHFFFAOYSA-N,5,-6.2,0.2005,NaN,NaN,NaN,NaN,NaN,NaN,NaN,NaN,NaN,NaN,NaN
Deoxyuridine,HMDB00012,2.415,14,m,NA,0.1028,0,OC[C@H]1O[C@H](C[C@@H]1O)N1C=CC(=O)NC1=O,InChIKey=MXHRCPNRJAMMIM-SHYZEUOFSA-N,4,-9.7,0.284,1,NaN,NaN,0,NaN,NaN,NaN,NaN,NaN,NaN,NaN
Beta-Leucine,HMDB03640,2.415,1,dd,16.78 9.30,0.2107,0,CC(C)[C@@H](N)CC(O)=O,InChIKey=GLUJNGJDHCTUJY-YFKPBYRVSA-N,14.58,-3,4.8,NaN,NaN,NaN,NaN,NaN,NaN,NaN,NaN,NaN,NaN,NaN
N-Acetylaspartylglutamic acid,HMDB01067,2.415,3,t,7.59,0.2427,-3,CC(=O)NC(CC(O)=O)C(=O)NC(CCC(O)=O)C(O)=O,InChIKey=OPVPGKGADVGKTG-UHFFFAOYSA-N,0.83,4.95,4.89,NaN,NaN,NaN,3.375,NaN,NaN,NaN,NaN,NaN,NaN,NaN
Tolnaftate,HMDB05005,2.415,3,s,NA,0.1241,0,CN(C(=S)OC1=CC2=CC=CC=C2C=C1)C1=CC=CC(C)=C1,InChIKey=FUSNMLFNXJSCDI-UHFFFAOYSA-N,1.87,10,NA,NA,NA,NA,NA,NA,NA,NA,NA,NA,NA,NA
Monomethyl glutaric acid,HMDB00858,2.415,2,t,7.51,0.2367,-1,COC(=O)CCCC(O)=O,InChIKey=IBMRTYCHDPMBFN-UHFFFAOYSA-N,3.13,-7.1,NaN,NaN,NaN,NaN,NaN,NaN,NaN,NaN,NaN,NaN,NaN,NaN
(R)-3-Hydroxybutyric acid,HMDB00011,2.417,1,dd,14.39 7.33,0.2342,-1,C[C@@H](O)CC(O)=O,InChIKey=WHBMMWSBFZVSSR-GSVOUGTGSA-N,3.37,4.09,53.33333333,25.8,NaN,NaN,286,NaN,NaN,NaN,NaN,NaN,NaN,NaN
7-Ketocholesterol,HMDB00501,2.425,4,m,NA,0.1276,0,[H][C@@]12CCC([C@H](C)CCCC(C)C)[C@@]1(C)CC[C@@]1([H])[C@@]2([H])C(=O)C=C2CC(O)CC[C@]12C,InChIKey=YIKKMWSQVKJCOP-QJFKPLHKSA-N,4.65,-6.7,0.056333333,NaN,NaN,NaN,NaN,NaN,NaN,NaN,NaN,NaN,NaN,NaN
Lithocholic acid,HMDB00761,2.425,3,m,NA,0.0519,-1,[H][C@@]12CC[C@H]([C@H](C)CCC(O)=O)[C@@]1(C)CC[C@@]1([H])[C@@]2([H])CCC2C[C@H](O)CC[C@]12C,InChIKey=SMEROWZSTRWXGI-YPLGJCPNSA-N,1.77,-1.8,0.33,NaN,NaN,NaN,NaN,NaN,NaN,NaN,NaN,NaN,NaN,NaN
Pantothenic acid,HMDB00210,2.425,2,t,6.78,0.3379,-1,CC(C)(CO)C(O)C(=O)NCCC(O)=O,InChIKey=GHOKWGTUZJEAQD-UHFFFAOYSA-N,1.74,-3,4.91,NaN,NaN,0.433,3.25,NaN,NaN,NaN,NaN,NaN,NaN,NaN
2-Hydroxyestrone,HMDB00343,2.425,1,dd,NA,0.0705,0,[H][C@@]12CCC(=O)[C@@]1(C)CC[C@]1([H])C3=C(CC[C@@]21[H])C=C(O)C(O)=C3,InChIKey=SWINWPBPEKHUOD-JPVZDGGYSA-N,4,-2.8,NaN,NaN,NaN,NaN,NaN,NaN,NaN,NaN,NaN,NaN,NaN,NaN
2-Methoxyestrone,HMDB00010,2.425,1,dd,NA,0.0311,0,[H][C@@]12CCC(=O)[C@@]1(C)CC[C@]1([H])C3=C(CC[C@@]21[H])C=C(O)C(OC)=C3,InChIKey=WHEUWNKSCXYKBU-QPWUGHHJSA-N,1.87,10,NaN,0.005,NaN,NaN,NaN,NaN,NaN,NaN,NaN,NaN,NaN,NaN
3-Hydroxytetradecanedioic acid,HMDB00394,2.425,1,dd,NA,0.0177,-2,OC(CCCCCCCCCCC(O)=O)CC(O)=O,InChIKey=CEDZIURHISELSQ-UHFFFAOYSA-N,17.39,-1.6,NaN,NaN,NaN,NaN,NaN,NaN,NaN,NaN,NaN,NaN,NaN,NaN
Nutriacholic acid,HMDB00467,2.425,5,m,NA,0.1322,-1,[H][C@@]12CCC([C@@H](C)CCC(O)=O)[C@@]1(C)CC[C@@]1([H])[C@@]2([H])C(=O)C[C@]2([H])C[C@H](O)CC[C@]12C,InChIKey=DXOCDBGWDZAYRQ-QPVZPPSOSA-N,3.78,-0.78,NaN,NaN,NaN,NaN,NaN,NaN,NaN,NaN,NaN,NaN,NaN,NaN
3-Hydroxybutyric acid,HMDB00357,2.429,14,m,NA,NA,-1,CC(O)CC(O)=O,InChIKey=WHBMMWSBFZVSSR-UHFFFAOYSA-N,18.3,-2.8,73.81666667,0.906666667,NaN,3.88,43.46666667,NaN,NaN,NaN,NaN,NaN,NaN,NaN
Etiocholanolone,HMDB00490,2.435,1,dd,NA,0.0541,0,[H][C@@]12CCC(=O)[C@@]1(C)CC[C@@]1([H])[C@@]2([H])CC[C@]2([H])C[C@H](O)CC[C@]12C,InChIKey=QGXBDMJGAMFCBF-BNSUEQOYSA-N,3.89,9.5,0.0013,NaN,NaN,NaN,NaN,NaN,NaN,NaN,NaN,NaN,NaN,NaN
Progesterone,HMDB01830,2.435,2,m,NA,0.1161,0,[H][C@@]12CC[C@H](C(C)=O)[C@@]1(C)CC[C@@]1([H])[C@@]2([H])CCC2=CC(=O)CC[C@]12C,InChIKey=RJKFOVLPORLFTN-LEKSSAKUSA-N,11.17,-6.2,0.0025,NaN,NaN,NaN,NaN,NaN,NaN,NaN,NaN,NaN,NaN,NaN
Hexanal,HMDB05994,2.435,2,td,7.40 1.87,0.0913,0,CCCCCC=O,InChIKey=JARKCYVAAOWBJS-UHFFFAOYSA-N,1.83,-3.6,0.22,NaN,NaN,NaN,0,NaN,NaN,NaN,NaN,NaN,NaN,NaN
Bilirubin,HMDB00054,2.435,4,br. s.,NA,0.279,-2,CC1=C(C=C)\C(NC1=O)=C\C1=C(C)C(CCC(O)=O)=C(CC2=C(CCC(O)=O)C(C)=C(N2)\C=C2/NC(=O)C(C=C)=C2C)N1,InChIKey=BPYKTIZUTYGOLE-IFADSCNNSA-N,3.6,-0.54,11.6,NA,NaN,NaN,0,NaN,NaN,NaN,NaN,NaN,NaN,NaN
4-Hydroxyproline,HMDB00725,2.435,2,m,14.06 7.97 1.83,0.4874,0,O[C@H]1CN[C@@H](C1)C(O)=O,InChIKey=PMMYEEVYMWASQN-DMTCNVIQSA-N,13.86,4,12.4,NA,NaN,0.93,NaN,NaN,NaN,NaN,NaN,NaN,NaN,NaN
PC(16:0/16:0),HMDB00564,2.435,5,m,NA,0.0495,0,CCCCCCCCCCCCCCCC(=O)OC[C@H](COP([O-])(=O)OCC[N+](C)(C)C)OC(=O)CCCCCCCCCCCCCCC,InChIKey=KILNVBDSWZSGLL-KXQOOQHDSA-N,4.6,-2.9,584.557,NaN,NaN,NaN,NaN,NaN,NaN,NaN,NaN,NaN,NaN,NaN
Pteroyltriglutamic acid,HMDB01902,2.435,2,m,NA,0.0576,-4,NC1=NC(=O)C2=NC(CNC3=CC=C(C=C3)C(=O)NC(CCC(=O)NC(CCC(=O)NC(CCC(O)=O)C(O)=O)C(O)=O)C(O)=O)=CN=C2N1,InChIKey=WOLQREOUPKZMEX-UHFFFAOYSA-N,13.42,-0.26,NA,NA,NA,NA,NA,NA,NA,NA,NA,NA,NA,NA
3-Hydroxysebacic acid,HMDB00350,2.435,1,dd,NA,0.032,-2,OC(CCCCCCC(O)=O)CC(O)=O,InChIKey=OQYZCCKCJQWHIE-UHFFFAOYSA-N,19.09,-4.9,NaN,NaN,NaN,NaN,NaN,NaN,NaN,NaN,NaN,NaN,NaN,NaN