Metabolite,HMDB Name,Shift (ppm),Hs,Type,J (Hz),Height,Physiological Charge,SMILES,InChlKey,pKa (Strongest Acidic),pKa (Strongest Basic),Blood,Urine,Feces,Saliva,Cerebrospinal Fluid (CSF),Amniotic Fluid,Aqueous Humour,Ascites Fluid,Breast Milk,Lymph,Sweat,Tears
Glycogen,HMDB00757,3.415,2,m,NA,0.0049,0,OC[C@H]1O[C@H](OC[C@H]2O[C@H](O[C@H]3[C@H](O)[C@@H](O)[C@@H](O)O[C@@H]3CO)[C@H](O)[C@@H](O)[C@@H]2O[C@H]2O[C@H](CO)[C@@H](O)[C@H](O)[C@H]2O)[C@H](O)[C@@H](O)[C@@H]1O,InChIKey=BYSGBSNPRWKUQH-UJDJLXLFSA-N,2.54,-7.5,NaN,NaN,NaN,NaN,NaN,NaN,NaN,NaN,NaN,NaN,NaN,NaN
L-Pipecolic acid,HMDB00716,3.415,1,m,NA,0.2124,0,OC(=O)[C@@H]1CCCCN1,InChIKey=HXEACLLIILLPRG-YFKPBYRVSA-N,10.87,-4.9,NaN,NaN,NaN,NaN,NaN,NaN,NaN,NaN,NaN,NaN,NaN,NaN
Diphenhydramine,HMDB01927,3.418,1,t,5.16,0.0841,1,CN(C)CCOC(C1=CC=CC=C1)C1=CC=CC=C1,InChIKey=ZZVUWRFHKOJYTH-UHFFFAOYSA-N,1.87,10,NaN,NaN,NaN,NaN,NaN,NaN,NaN,NaN,NaN,NaN,NaN,NaN
Menthol,HMDB03352,3.425,1,br. s.,NA,0.0621,0,CC(C)[C@@H]1CC[C@@H](C)C[C@H]1O,InChIKey=NOOLISFMXDJSKH-KXUCPTDWSA-N,14.58,-3,0.064,NaN,NaN,NaN,NaN,NaN,NaN,NaN,NaN,NaN,NaN,NaN
Caffeine,HMDB01847,3.425,3,s,NA,0.9981,0,CN1C=NC2=C1C(=O)N(C)C(=O)N2C,InChIKey=RYYVLZVUVIJVGH-UHFFFAOYSA-N,3.78,-2.4,78,0.33,NaN,9.65,NaN,NaN,NaN,NaN,NaN,NaN,NaN,NaN
L-Proline,HMDB00162,3.425,1,dt,11.65 7.02,0.7822,0,OC(=O)[C@@H]1CCCN1,InChIKey=ONIBWKKTOPOVIA-BYPYZUCNSA-N,4.75,9.43,181.2666667,NA,NaN,NA,NA,NaN,NaN,NaN,NaN,NaN,NaN,NaN
2-Phenylbutyric acid,HMDB00329,3.425,8,t,7.76,0.1631,-1,CCC(C(O)=O)C1=CC=CC=C1,InChIKey=OFJWFSNDPCAWDK-UHFFFAOYSA-N,3.35,-0.18,NA,NA,NA,NA,NA,NA,NA,NA,NA,NA,NA,NA
Allose,HMDB01151,3.425,1,dd,8.28 3.00,0.2805,0,[H][C@@]1(CO)OC(O)[C@@]([H])(O)[C@@]([H])(O)[C@@]1([H])O,InChIKey=WQZGKKKJIJFFOK-HOWGCPQDSA-N,10.47,-4.8,NA,NA,NA,NA,NA,NA,NA,NA,NA,NA,NA,NA
D-Maltose,HMDB00163,3.425,2,t,9.55,0.9323,0,OC[C@H]1O[C@H](O[C@H]2[C@H](O)[C@H](O)[C@@H](O)O[C@@H]2CO)[C@H](O)[C@@H](O)[C@@H]1O,InChIKey=GUBGYTABKSRVRQ-DKBJLJRDSA-N,7.93,9.34,NaN,NaN,NaN,NaN,NaN,NaN,NaN,NaN,NaN,NaN,NaN,NaN
Lipoamide,HMDB00962,3.425,1,m,NA,0.1362,0,NC(=O)CCCCC1CCSS1,InChIKey=FCCDDURTIIUXBY-UHFFFAOYSA-N,1.87,-4.7,NaN,NaN,NaN,NaN,NaN,NaN,NaN,NaN,NaN,NaN,NaN,NaN
Levofloxacin,HMDB01929,3.435,4,m,NA,0.0677,-1,C[C@H]1COC2=C(N3CCN(C)CC3)C(F)=CC3=C2N1C=C(C(O)=O)C3=O,InChIKey=GSDSWSVVBLHKDQ-JTQLQIEISA-N,3.51,-6.3,0.135,NaN,NaN,NaN,NaN,NaN,NaN,NaN,NaN,NaN,NaN,NaN
Allantoin,HMDB00462,3.435,2,m,NA,0.1176,0,NC(=O)NC1NC(=O)NC1=O,InChIKey=POJWUDADGALRAB-UHFFFAOYSA-N,2.35,-3.8,2.1,10.65666667,NaN,18.9,9.3,NaN,NaN,NaN,NaN,NaN,NaN,NaN
Taurine,HMDB00251,3.435,2,t,6.62,0.9022,0,NCCS(O)(=O)=O,InChIKey=XOAAWQZATWQOTB-UHFFFAOYSA-N,3.57,-1.4,73,43.078,NaN,105.56,6.903333333,NaN,NaN,NaN,NaN,NaN,NaN,NaN
17-Epiestriol,HMDB00356,3.435,1,dd,4.87 3.55,0.1443,0,C[C@]12CCC3C(CCC4=C3C=CC(O)=C4)C1C[C@@H](O)[C@H]2O,InChIKey=PROQIPRRNZUXQM-MAHASAQBSA-N,4.09,-3.5,NA,NA,NA,NA,NA,NA,NA,NA,NA,NA,NA,NA
Anatabine,HMDB04476,3.435,1,m,NA,0.0659,1,C1N[C@@H](CC=C1)C1=CN=CC=C1,InChIKey=SOPPBXUYQGUQHE-JTQLQIEISA-N,1.86,-6.7,NA,NA,NA,NA,NA,NA,NA,NA,NA,NA,NA,NA
D-Xylose,HMDB00098,3.435,1,t,9.25,1,0,O[C@@H]1COC(O)[C@H](O)[C@H]1O,InChIKey=SRBFZHDQGSBBOR-IOVATXLUSA-N,14.58,-3,NaN,5.26,NaN,NaN,NaN,NaN,NaN,NaN,NaN,NaN,NaN,NaN
Isomaltose,HMDB02923,3.435,2,t,9.52,1,0,OC[C@H]1O[C@H](OC[C@H]2OC(O)[C@H](O)[C@@H](O)[C@@H]2O)[C@H](O)[C@@H](O)[C@@H]1O,InChIKey=DLRVVLDZNNYCBX-RTPHMHGBSA-N,9.91,-1.4,NaN,NaN,NaN,NaN,NaN,NaN,NaN,NaN,NaN,NaN,NaN,NaN
Maltotetraose,HMDB01296,3.435,2,t,9.55,0.5788,0,OC[C@H]1O[C@H](O[C@H]2[C@H](O)[C@@H](O)[C@@H](O[C@H]3[C@H](O)[C@@H](O)[C@@H](O[C@H]4[C@H](O)[C@@H](O)C(O)O[C@@H]4CO)O[C@@H]3CO)O[C@@H]2CO)[C@H](O)[C@@H](O)[C@@H]1O,InChIKey=LUEWUZLMQUOBSB-AYQJAVFRSA-N,3.23,5.58,NaN,NaN,NaN,NaN,NaN,NaN,NaN,NaN,NaN,NaN,NaN,NaN
1.3-Dimethyluric acid,HMDB01857,3.443,3,s,NA,1,0,CN1C2=C(NC(=O)N2)C(=O)N(C)C1=O,InChIKey=OTSBKHHWSQYEHK-UHFFFAOYSA-N,1.88,6.69,NaN,1.5,NaN,NaN,NaN,NaN,NaN,NaN,NaN,NaN,NaN,NaN
Rhamnose,HMDB00849,3.444,2,t,9.7,0.3296,0,C[C@@H]1OC(O)[C@H](O)[C@H](O)[C@H]1O,InChIKey=SHZGCJCMOBCMKK-JFNONXLTSA-N,0.89,-1.5,NaN,NaN,NaN,NaN,NaN,NaN,NaN,NaN,NaN,NaN,NaN,NaN
Pantothenic acid,HMDB00210,3.445,2,q,6.69,0.2098,-1,CC(C)(CO)C(O)C(=O)NCCC(O)=O,InChIKey=GHOKWGTUZJEAQD-UHFFFAOYSA-N,1.74,-3,4.91,NaN,NaN,0.433,3.25,NaN,NaN,NaN,NaN,NaN,NaN,NaN
Acetoacetic acid,HMDB00060,3.445,2,s,NA,0.559,-1,CC(=O)CC(O)=O,InChIKey=WDJHALXBUFZDSR-UHFFFAOYSA-N,1.88,-4.2,30.8,NaN,NaN,10.7,19.1,NaN,NaN,NaN,NaN,NaN,NaN,NaN
Cellobiose,HMDB00055,3.445,3,m,NA,0.2438,0,OC[C@H]1O[C@@H](O[C@H]2[C@H](O)[C@@H](O)[C@H](O)O[C@@H]2CO)[C@H](O)[C@@H](O)[C@@H]1O,InChIKey=GUBGYTABKSRVRQ-QRZGKKJRSA-N,11.7,1.83,NA,NA,NA,NA,NA,NA,NA,NA,NA,NA,NA,NA
1.5-Anhydrosorbitol,HMDB02712,3.445,2,m,NA,0.4528,0,OC[C@H]1OC[C@H](O)[C@@H](O)[C@@H]1O,InChIKey=MPCAJMNYNOGXPB-SLPGGIOYSA-N,1.86,-6.7,NaN,NaN,NaN,NaN,62.96666667,NaN,NaN,NaN,NaN,NaN,NaN,NaN
cis-Aconitic acid,HMDB00072,3.445,2,d,0.66,1,-3,OC(=O)C\C(=C\C(O)=O)C(O)=O,InChIKey=GTZCVFVGUGFEME-IWQZZHSRSA-N,4.99,-3,NaN,13,NaN,NaN,20,NaN,NaN,NaN,NaN,NaN,NaN,NaN
Rutin,HMDB03249,3.445,4,m,NA,0.2134,-1,C[C@@H]1O[C@@H](OC[C@H]2O[C@@H](OC3=C(OC4=CC(O)=CC(O)=C4C3=O)C3=CC(O)=C(O)C=C3)[C@H](O)[C@@H](O)[C@@H]2O)[C@H](O)[C@H](O)[C@H]1O,InChIKey=IKGXIBQEEMLURG-NVPNHPEKSA-N,14.58,-3,NaN,NaN,NaN,NaN,NaN,NaN,NaN,NaN,NaN,NaN,NaN,NaN
Propylene glycol,HMDB01881,3.449,14,dd,NA,NA,0,CC(O)CO,InChIKey=DNIAPMSPPWPWGF-UHFFFAOYSA-N,2.03,4.95,12.15,NaN,NaN,NA,33,NaN,NaN,NaN,NaN,NaN,NaN,NaN
Homovanillic acid,HMDB00118,3.455,2,s,NA,0.4526,-1,COC1=CC(CC(O)=O)=CC=C1O,InChIKey=QRMZSPFSDQBLIX-UHFFFAOYSA-N,1.86,-4.8,0.082,NA,NaN,NaN,0.16,NaN,NaN,NaN,NaN,NaN,NaN,NaN
5-Methoxydimethyltryptamine,HMDB02004,3.455,2,t,7.51,0.1007,1,COC1=CC2=C(NC=C2CCN(C)C)C=C1,InChIKey=ZSTKHSQDNIGFLM-UHFFFAOYSA-N,0.83,4.99,0.21,0.02,NaN,NaN,NaN,NaN,NaN,NaN,NaN,NaN,NaN,NaN
p-Hydroxyphenylacetic acid,HMDB00020,3.455,3,s,NA,1,-1,OC(=O)CC1=CC=C(O)C=C1,InChIKey=XQXPVVBIMDBYFF-UHFFFAOYSA-N,18.3,-1.9,0.23,9.2,NaN,16.055,NaN,NaN,NaN,NaN,NaN,NaN,NaN,NaN
Azythromycin,HMDB01916,3.455,1,d,NA,0.0239,2,CC[C@@H]1OC(=O)[C@H](C)[C@@H](O[C@@H]2C[C@](C)(OC)[C@H](O)[C@@H](C)O2)[C@@H](C)[C@H](O[C@H]2O[C@@H](C)C[C@H]([C@@H]2O)N(C)C)[C@@](C)(O)C[C@H](C)CN(C)[C@@H](C)[C@@H](O)[C@]1(C)O,InChIKey=MQTOSJVFKKJCRP-HHZDEWPHSA-N,3.84,1.99,NA,NA,NA,NA,NA,NA,NA,NA,NA,NA,NA,NA
Trehalose,HMDB00975,3.455,14,t,9.47,0.6413,0,OC[C@H]1O[C@H](O[C@H]2O[C@H](CO)[C@@H](O)[C@H](O)[C@H]2O)[C@H](O)[C@@H](O)[C@@H]1O,InChIKey=HDTRYLNUVZCQOY-LIZSDCNHSA-N,4.35,5,NaN,NaN,NaN,NaN,NaN,NaN,NaN,NaN,NaN,NaN,NaN,NaN
Sphinganine,HMDB00269,3.465,1,dd,NA,0.0182,1,CCCCCCCCCCCCCCC[C@@H](O)[C@@H](N)CO,InChIKey=OTKJDMGTUTTYMP-ZWKOTPCHSA-N,18.3,-2.4,0.011,0.00023,NaN,NaN,NaN,NaN,NaN,NaN,NaN,NaN,NaN,NaN
Dihydrouracil,HMDB00076,3.465,2,t,7.01,0.7636,0,O=C1CCNC(=O)N1,InChIKey=OIVLITBTBDPEFK-UHFFFAOYSA-N,2.31,-3.3,0.31,0.79,NaN,2168.16,NaN,NaN,NaN,NaN,NaN,NaN,NaN,NaN
Maltitol,HMDB02928,3.465,1,t,NA,0.7521,0,[H][C@@](O[C@H]1O[C@H](CO)[C@@H](O)[C@H](O)[C@H]1O)([C@H](O)CO)[C@H](O)[C@@H](O)CO,InChIKey=VQHSOMBJVWLPSR-WUJBLJFYSA-N,1.22,-0.88,NA,NA,NA,NA,NA,NA,NA,NA,NA,NA,NA,NA
L-Fucose,HMDB00174,3.465,9,dd,9.89 7.97,0.18,0,C[C@@H]1OC(O)[C@@H](O)[C@H](O)[C@@H]1O,InChIKey=SHZGCJCMOBCMKK-DHVFOXMCSA-N,14.12,9.39,NaN,9.6,NaN,112.06,NaN,NaN,NaN,NaN,NaN,NaN,NaN,NaN
Ranitidine,HMDB01930,3.465,1,t,6.31,0.123,1,CN\C(NCCSCC1=CC=C(CN(C)C)O1)=C/[N+]([O-])=O,InChIKey=VMXUWOKSQNHOCA-UKTHLTGXSA-N,1.87,10,NaN,NaN,NaN,NaN,NaN,NaN,NaN,NaN,NaN,NaN,NaN,NaN
D-Glucose,HMDB00122,3.473,18,m,NA,NA,0,OC[C@H]1OC(O)[C@H](O)[C@@H](O)[C@@H]1O,InChIKey=WQZGKKKJIJFFOK-GASJEMHNSA-N,1.89,-6.6,4935.2875,17.15333333,NaN,NA,2340,NaN,NaN,NaN,NaN,NaN,NaN,NaN
4-Hydroxyproline,HMDB00725,3.475,2,dd,12.64 3.87,0.8359,0,O[C@H]1CN[C@@H](C1)C(O)=O,InChIKey=PMMYEEVYMWASQN-DMTCNVIQSA-N,13.86,4,12.4,NA,NaN,0.93,NaN,NaN,NaN,NaN,NaN,NaN,NaN,NaN
Coenzyme A,HMDB01423,3.475,2,m,NA,0.2099,-4,CC(C)(COP(O)(=O)OP(O)(=O)OC[C@H]1O[C@H]([C@H](O)[C@@H]1OP(O)(O)=O)N1C=NC2=C1N=CN=C2N)C(O)C(=O)NCCC(=O)NCCS,InChIKey=RGJOEKWQDUBAIZ-DRCCLKDXSA-N,16.92,3.22,NA,NA,NA,NA,NA,NA,NA,NA,NA,NA,NA,NA
3b-Hydroxy-5-cholenoic acid,HMDB00308,3.475,2,m,NA,0.0682,-1,[H][C@@]12CC[C@H]([C@H](C)CCC(O)=O)[C@@]1(C)CC[C@@]1([H])[C@@]2([H])CC=C2C[C@@H](O)CC[C@]12C,InChIKey=HIAJCGFYHIANNA-QIZZZRFXSA-N,10.29,-3,NaN,NaN,NaN,NaN,NaN,NaN,NaN,NaN,NaN,NaN,NaN,NaN
Alpha-D-Glucose,HMDB03345,3.475,2,m,NA,0.7571,0,OC[C@H]1O[C@H](O)[C@H](O)[C@@H](O)[C@@H]1O,InChIKey=WQZGKKKJIJFFOK-DVKNGEFBSA-N,14.58,-3,NaN,NaN,NaN,NaN,NaN,NaN,NaN,NaN,NaN,NaN,NaN,NaN
Selenocystine,HMDB04122,3.475,2,dd,14.09 7.70,0.9864,0,NC(C[Se][Se]CC(N)C(O)=O)C(O)=O,InChIKey=JULROCUWKLNBSN-UHFFFAOYSA-N,1.86,-4.8,NaN,NaN,NaN,NaN,NaN,NaN,NaN,NaN,NaN,NaN,NaN,NaN
Sucrose,HMDB00258,3.475,1,t,9.3,0.3294,0,OC[C@H]1O[C@@](CO)(O[C@H]2O[C@H](CO)[C@@H](O)[C@H](O)[C@H]2O)[C@@H](O)[C@@H]1O,InChIKey=CZMRCDWAGMRECN-UGDNZRGBSA-N,8.75,9.83,NaN,5.86275,NaN,NaN,NaN,NaN,NaN,NaN,NaN,NaN,NaN,NaN
Uridine diphosphate glucose,HMDB00286,3.475,2,t,9.65,0.5294,-2,OC[C@@H]1OC(OP(O)(=O)OP(O)(=O)OC[C@@H]2O[C@@H]([C@@H](O)[C@H]2O)N2C=CC(=O)NC2=O)[C@@H](O)[C@H](O)[C@H]1O,InChIKey=HSCJRCZFDFQWRP-LPTOLDDLSA-N,18.3,0.7,NaN,NaN,NaN,NaN,NaN,NaN,NaN,NaN,NaN,NaN,NaN,NaN
1-Methylguanine,HMDB03282,3.485,8,s,NA,1,0,CN1C(N)=NC2=C(NC=N2)C1=O,InChIKey=RFLVMTUMFYRZCB-UHFFFAOYSA-N,14.58,-3,NA,NA,NA,NA,NA,NA,NA,NA,NA,NA,NA,NA
3-Methylphenylacetic acid,HMDB02222,3.485,2,s,NA,0.8185,-1,CC1=CC(CC(O)=O)=CC=C1,InChIKey=GJMPSRSMBJLKKB-UHFFFAOYSA-N,11.92,0.019,NA,NA,NA,NA,NA,NA,NA,NA,NA,NA,NA,NA
Beta-N-Acetylglucosamine,HMDB00803,3.485,3,m,NA,0.0938,0,CC(=O)N[C@H]1[C@H](O)O[C@H](CO)[C@@H](O)[C@@H]1O,InChIKey=OVRNDRQMDRJTHS-FMDGEEDCSA-N,1.16,8.69,NaN,NaN,NaN,NaN,NaN,NaN,NaN,NaN,NaN,NaN,NaN,NaN
Melatonin,HMDB01389,3.485,3,q,6.54,0.1803,0,COC1=CC2=C(NC=C2CCNC(C)=O)C=C1,InChIKey=DRLFMBDRBRZALE-UHFFFAOYSA-N,4.12,-7.2,NaN,NaN,NaN,NaN,NaN,NaN,NaN,NaN,NaN,NaN,NaN,NaN
L-Tryptophan,HMDB00929,3.487,12,dd,15.380 4.796,NA,0,N[C@@H](CC1=CNC2=CC=CC=C12)C(O)=O,InChIKey=QIVBCDIJIAJPQS-VIFPVBQESA-N,1.86,4.79,58.96666667,4.8066,NaN,2.65,7.335,NaN,NaN,NaN,NaN,NaN,NaN,NaN
Sphingosine,HMDB00252,3.495,1,dd,NA,0.0578,1,CCCCCCCCCCCCC\C=C\C(O)C(N)CO,InChIKey=WWUZIQQURGPMPG-CCEZHUSRSA-N,10.33,-2.7,0.05,3.85E-05,NaN,NaN,NaN,NaN,NaN,NaN,NaN,NaN,NaN,NaN
Glycocholic acid,HMDB00138,3.495,2,m,NA,0.0844,-1,[H][C@@]12CC[C@H]([C@H](C)CCC(=O)NCC(O)=O)[C@@]1(C)[C@@H](O)C[C@@]1([H])[C@@]2([H])[C@H](O)CC2C[C@H](O)CC[C@]12C,InChIKey=RFDAIACWWDREDC-MZMBZMQMSA-N,4.55,8.85,0.06,0.42,NaN,NaN,NaN,NaN,NaN,NaN,NaN,NaN,NaN,NaN
D-Galactose,HMDB00143,3.495,1,dd,9.89 7.88,0.6077,0,OC[C@H]1O[C@H](O)[C@H](O)[C@@H](O)[C@H]1O,InChIKey=WQZGKKKJIJFFOK-PHYPRBDBSA-N,1.87,10,88.3,4.4,NaN,83.46,166,NaN,NaN,NaN,NaN,NaN,NaN,NaN
Salicin,HMDB03546,3.495,4,m,NA,0.1328,0,OC[C@H]1O[C@@H](OC2=C(CO)C=CC=C2)[C@H](O)[C@@H](O)[C@@H]1O,InChIKey=NGFMICBWJRZIBI-UJPOAAIJSA-N,14.58,-3,NA,NA,NA,NA,NA,NA,NA,NA,NA,NA,NA,NA
Thymidine 3'.5'-cyclic monophosphate,HMDB01570,3.495,1,m,NA,0.0713,-1,CC1=CN([C@H]2CC3OP(O)(=O)OCC3O2)C(=O)NC1=O,InChIKey=QSJFDOVQWZVUQG-KAVNDROISA-N,4.82,-1.5,NA,NA,NA,NA,NA,NA,NA,NA,NA,NA,NA,NA
3-Hydroxyphenylacetic acid,HMDB00440,3.495,2,s,NA,1,-1,OC(=O)CC1=CC=CC(O)=C1,InChIKey=FVMDYYGIDFPZAX-UHFFFAOYSA-N,13.62,8.23,NaN,11.85,NaN,NaN,NaN,NaN,NaN,NaN,NaN,NaN,NaN,NaN
Glucose 1-phosphate,HMDB01586,3.495,13,ddd,9.70 3.41 1.85,0.4475,-2,OC[C@H]1OC(OP(O)(O)=O)[C@H](O)[C@@H](O)[C@@H]1O,InChIKey=HXXFSFRBOHSIMQ-GASJEMHNSA-N,4.95,-4,NaN,NaN,NaN,NaN,NaN,NaN,NaN,NaN,NaN,NaN,NaN,NaN
Dihydrothymine,HMDB00079,3.5,1,dd,12.75 6.27,0.1426,0,CC1CNC(=O)NC1=O,InChIKey=NBAKTGXDIBVZOO-UHFFFAOYSA-N,1.51,-3.7,NaN,2.7,NaN,NaN,NaN,NaN,NaN,NaN,NaN,NaN,NaN,NaN
Thyroxine,HMDB00248,3.505,1,dd,8.58 4.57,0.1036,0,N[C@@H](CC1=CC(I)=C(OC2=CC(I)=C(O)C(I)=C2)C(I)=C1)C(O)=O,InChIKey=XUIIKFGFIJCVMT-LBPRGKRZSA-N,16.07,-5.9,2.00E-05,0.00032,NaN,0,NaN,NaN,NaN,NaN,NaN,NaN,NaN,NaN
Methylimidazoleacetic acid,HMDB02820,3.505,2,s,NA,0.4739,-1,CN1C=NC(CC(O)=O)=C1,InChIKey=ZHCKPJGJQOPTLB-UHFFFAOYSA-N,11.41,-3.7,0.08457,1.6575,NaN,NaN,NaN,NaN,NaN,NaN,NaN,NaN,NaN,NaN
2-Hydroxyestradiol,HMDB00338,3.505,1,td,NA,0.0445,0,[H][C@@]12CC[C@H](O)[C@@]1(C)CC[C@]1([H])C3=C(CC[C@@]21[H])C=C(O)C(O)=C3,InChIKey=DILDHNKDVHLEQB-XSSYPUMDSA-N,1.86,-6.7,NaN,NaN,NaN,NaN,NaN,NaN,NaN,NaN,NaN,NaN,NaN,NaN
Atenolol,HMDB01924,3.505,1,spt,NA,0.1818,1,CC(C)NCC(O)COC1=CC=C(CC(N)=O)C=C1,InChIKey=METKIMKYRPQLGS-UHFFFAOYSA-N,15.74,-0.94,NaN,NaN,NaN,NaN,NaN,NaN,NaN,NaN,NaN,NaN,NaN,NaN
Isomaltose,HMDB02923,3.505,3,m,NA,0.9546,0,OC[C@H]1O[C@H](OC[C@H]2OC(O)[C@H](O)[C@@H](O)[C@@H]2O)[C@H](O)[C@@H](O)[C@@H]1O,InChIKey=DLRVVLDZNNYCBX-RTPHMHGBSA-N,9.91,-1.4,NaN,NaN,NaN,NaN,NaN,NaN,NaN,NaN,NaN,NaN,NaN,NaN
Liothyronine,HMDB00265,3.505,1,dd,8.23 4.65,0.0832,0,N[C@@H](CC1=CC(I)=C(OC2=CC=C(O)C(I)=C2)C(I)=C1)C(O)=O,InChIKey=AUYYCJSJGJYCDS-LBPRGKRZSA-N,1.86,-2.8,NaN,NaN,NaN,0,NaN,NaN,NaN,NaN,NaN,NaN,NaN,NaN
L-Sorbose,HMDB01266,3.505,3,m,NA,1,0,OC[C@@]1(O)OC[C@H](O)[C@@H](O)[C@@H]1O,InChIKey=LKDRXBCSQODPBY-BGPJRJDNSA-N,2.98,8.17,NaN,NaN,NaN,NaN,NaN,NaN,NaN,NaN,NaN,NaN,NaN,NaN
Chenodeoxycholic acid,HMDB00518,3.515,1,qd,NA,0.0702,-1,[H][C@@]1(CC[C@@]2([H])[C@]3([H])[C@H](O)C[C@]4([H])C[C@H](O)CC[C@]4(C)[C@@]3([H])CC[C@]12C)[C@H](C)CCC(O)=O,InChIKey=RUDATBOHQWOJDD-BSWAIDMHSA-N,2.15,-4.1,1.165,NaN,NaN,NaN,NaN,NaN,NaN,NaN,NaN,NaN,NaN,NaN
Campesterol,HMDB02869,3.515,1,m,NA,0.005,0,[H][C@@]12CC[C@H]([C@H](C)CC[C@H](C)C(C)C)[C@@]1(C)CC[C@@]1([H])[C@@]2([H])CC=C2C[C@@H](O)CC[C@]12C,InChIKey=SGNBVLSWZMBQTH-ZRUUVFCLSA-N,1.87,8,8.346666667,NaN,NaN,NaN,NaN,NaN,NaN,NaN,NaN,NaN,NaN,NaN
Beta-Sitosterol,HMDB00852,3.515,1,m,NA,0.0046,0,[H][C@@]1(CC[C@@]2([H])[C@]3([H])CC=C4C[C@@H](O)CC[C@]4(C)[C@@]3([H])CC[C@]12C)[C@H](C)CC[C@@H](CC)C(C)C,InChIKey=KZJWDPNRJALLNS-VJSFXXLFSA-N,-33,-2,9.744,NaN,NaN,NaN,NaN,NaN,NaN,NaN,NaN,NaN,NaN,NaN
Glucose 6-phosphate,HMDB01401,3.515,2,d,9.32,0.9626,-2,OC1O[C@H](COP(O)(O)=O)[C@@H](O)[C@H](O)[C@H]1O,InChIKey=NBSCHQHZLSJFNQ-GASJEMHNSA-N,1.86,4.95,29.1,NaN,NaN,NaN,NaN,NaN,NaN,NaN,NaN,NaN,NaN,NaN
PC(16:0/16:0),HMDB00564,3.515,10,s,NA,0.3203,0,CCCCCCCCCCCCCCCC(=O)OC[C@H](COP([O-])(=O)OCC[N+](C)(C)C)OC(=O)CCCCCCCCCCCCCCC,InChIKey=KILNVBDSWZSGLL-KXQOOQHDSA-N,4.6,-2.9,584.557,NaN,NaN,NaN,NaN,NaN,NaN,NaN,NaN,NaN,NaN,NaN
Cysteine-S-sulfate,HMDB00731,3.515,1,dd,15.41 7.87,0.9652,-1,N[C@@H](CSS(O)(=O)=O)C(O)=O,InChIKey=NOKPBJYHPHHWAN-REOHCLBHSA-N,-1.1,-0.05,NaN,6.94,NaN,NaN,NaN,NaN,NaN,NaN,NaN,NaN,NaN,NaN
D-Tagatose,HMDB03418,3.515,1,d,11.77,0.9205,0,OC[C@@H](O)[C@H](O)[C@H](O)C(=O)CO,InChIKey=BJHIKXHVCXFQLS-PQLUHFTBSA-N,14.58,-3,NaN,NaN,NaN,NaN,NaN,NaN,NaN,NaN,NaN,NaN,NaN,NaN
Homoveratric acid,HMDB00434,3.515,2,s,NA,0.5183,-1,COC1=CC=C(CC(O)=O)C=C1OC,InChIKey=WUAXWQRULBZETB-UHFFFAOYSA-N,19.52,-0.58,NaN,NaN,NaN,NaN,NaN,NaN,NaN,NaN,NaN,NaN,NaN,NaN
Choline,HMDB00097,3.522,14,dd,5.816 4.162,0.2148,1,C[N+](C)(C)CCO,InChIKey=OEYIOHPDSNJKLS-UHFFFAOYSA-N,2.53,2.66,12.55,NaN,NaN,NA,5.65,NaN,NaN,NaN,NaN,NaN,NaN,NaN
N-Acetylserotonin,HMDB01238,3.522,1,q,6.54,0.0301,0,CC(=O)NCCC1=CNC2=C1C=C(O)C=C2,InChIKey=MVAWJSIDNICKHF-UHFFFAOYSA-N,2.7,-1.4,NaN,NaN,NaN,NaN,NaN,NaN,NaN,NaN,NaN,NaN,NaN,NaN
2-Methoxyestradiol,HMDB00405,3.525,1,m,NA,0.0595,0,[H][C@@]12CC[C@H](O)[C@@]1(C)CC[C@]1([H])C3=C(CC[C@@]21[H])C=C(O)C(OC)=C3,InChIKey=CQOQDQWUFQDJMK-SSTWWWIQSA-N,4.02,-1.4,0.01,NaN,NaN,NaN,NaN,NaN,NaN,NaN,NaN,NaN,NaN,NaN
Sphinganine,HMDB00269,3.525,1,m,NA,0.0098,1,CCCCCCCCCCCCCCC[C@@H](O)[C@@H](N)CO,InChIKey=OTKJDMGTUTTYMP-ZWKOTPCHSA-N,18.3,-2.4,0.011,0.00023,NaN,NaN,NaN,NaN,NaN,NaN,NaN,NaN,NaN,NaN
L-Arabinose,HMDB00646,3.525,2,dd,9.70 7.83,0.1551,0,O[C@H]1COC(O)[C@H](O)[C@H]1O,InChIKey=SRBFZHDQGSBBOR-HWQSCIPKSA-N,13.62,-3,2.5,8.75,NaN,NaN,14.15,NaN,NaN,NaN,NaN,NaN,NaN,NaN
Pantothenic acid,HMDB00210,3.525,1,d,11.25,0.2034,-1,CC(C)(CO)C(O)C(=O)NCCC(O)=O,InChIKey=GHOKWGTUZJEAQD-UHFFFAOYSA-N,1.74,-3,4.91,NaN,NaN,0.433,3.25,NaN,NaN,NaN,NaN,NaN,NaN,NaN
17-alpha.20-alpha-Dihydroxypregn-4-en-3-one,HMDB11653,3.525,1,s,NA,0.5316,0,[H][C@@]12CC[C@](O)([C@H](C)O)[C@@]1(C)CC[C@@]1([H])[C@@]2([H])CCC2=CC(=O)CC[C@]12C,InChIKey=MASCESDECGBIBB-HNXXTFFGSA-N,1.86,-3,NA,NA,NA,NA,NA,NA,NA,NA,NA,NA,NA,NA
Azythromycin,HMDB01916,3.525,1,d,NA,0.0298,2,CC[C@@H]1OC(=O)[C@H](C)[C@@H](O[C@@H]2C[C@](C)(OC)[C@H](O)[C@@H](C)O2)[C@@H](C)[C@H](O[C@H]2O[C@@H](C)C[C@H]([C@@H]2O)N(C)C)[C@@](C)(O)C[C@H](C)CN(C)[C@@H](C)[C@@H](O)[C@]1(C)O,InChIKey=MQTOSJVFKKJCRP-HHZDEWPHSA-N,3.84,1.99,NA,NA,NA,NA,NA,NA,NA,NA,NA,NA,NA,NA
Cellobiose,HMDB00055,3.525,6,m,NA,0.2585,0,OC[C@H]1O[C@@H](O[C@H]2[C@H](O)[C@@H](O)[C@H](O)O[C@@H]2CO)[C@H](O)[C@@H](O)[C@@H]1O,InChIKey=GUBGYTABKSRVRQ-QRZGKKJRSA-N,11.7,1.83,NA,NA,NA,NA,NA,NA,NA,NA,NA,NA,NA,NA
Muramic acid,HMDB03254,3.525,1,m,NA,0.0688,0,C[C@@H](O[C@H]1[C@@H](N)[C@H](O)O[C@H](CO)[C@H]1O)C(O)=O,InChIKey=MSFSPUZXLOGKHJ-LEISLEKSSA-N,14.58,-3,NA,NA,NA,NA,NA,NA,NA,NA,NA,NA,NA,NA
3-Methylxanthine,HMDB01886,3.525,3,s,NA,0.139,0,CN1C2=C(NC=N2)C(=O)NC1=O,InChIKey=GMSNIKWWOQHZGF-UHFFFAOYSA-N,2.41,9.5,NaN,4,NaN,NaN,NaN,NaN,NaN,NaN,NaN,NaN,NaN,NaN
D-threo-Isocitric acid,HMDB01874,3.525,2,m,NA,0.8177,-3,O[C@H]([C@H](CC(O)=O)C(O)=O)C(O)=O,InChIKey=ODBLHEXUDAPZAU-ZAFYKAAXSA-N,2.67,4.95,NaN,NaN,NaN,NaN,NaN,NaN,NaN,NaN,NaN,NaN,NaN,NaN
D-Xylose,HMDB00098,3.525,1,dd,9.36,0.3199,0,O[C@@H]1COC(O)[C@H](O)[C@H]1O,InChIKey=SRBFZHDQGSBBOR-IOVATXLUSA-N,14.58,-3,NaN,5.26,NaN,NaN,NaN,NaN,NaN,NaN,NaN,NaN,NaN,NaN
D-Xylose,HMDB00098,3.525,1,dd,3.69,0.3199,0,O[C@@H]1COC(O)[C@H](O)[C@H]1O,InChIKey=SRBFZHDQGSBBOR-IOVATXLUSA-N,14.58,-3,NaN,5.26,NaN,NaN,NaN,NaN,NaN,NaN,NaN,NaN,NaN,NaN
Estradiol,HMDB00151,3.525,1,s,NA,0.084,0,[H][C@@]12CC[C@H](O)[C@@]1(C)CC[C@]1([H])C3=C(CC[C@@]21[H])C=C(O)C=C3,InChIKey=VOXZDWNPVJITMN-ZBRFXRBCSA-N,1.86,-6.7,NaN,NaN,NaN,NA,NaN,NaN,NaN,NaN,NaN,NaN,NaN,NaN
Galacturonic acid,HMDB02545,3.525,12,dd,NA,0.4948,-1,O[C@@H](C=O)[C@@H](O)[C@@H](O)[C@H](O)C(O)=O,InChIKey=IAJILQKETJEXLJ-RSJOWCBRSA-N,14.58,-3,NaN,NaN,NaN,NaN,NaN,NaN,NaN,NaN,NaN,NaN,NaN,NaN
Melibiose,HMDB00048,3.525,17,m,NA,0.4158,0,OC[C@H]1O[C@H](OC[C@H]2OC(O)[C@H](O)[C@@H](O)[C@@H]2O)[C@H](O)[C@@H](O)[C@H]1O,InChIKey=DLRVVLDZNNYCBX-ABXHMFFYSA-N,2.06,-0.1,NaN,NaN,NaN,NaN,NaN,NaN,NaN,NaN,NaN,NaN,NaN,NaN
Propranolol,HMDB01849,3.525,1,m,6.54,0.1475,1,CC(C)NCC(O)COC1=CC=CC2=CC=CC=C12,InChIKey=AQHHHDLHHXJYJD-UHFFFAOYSA-N,3.16,-4.2,NaN,NaN,NaN,NaN,NaN,NaN,NaN,NaN,NaN,NaN,NaN,NaN
Tetrahydrocortisone,HMDB00903,3.525,1,m,NA,0.0021,0,[H][C@@]12CC[C@](O)(C(=O)CO)[C@@]1(C)CC(=O)[C@@]1([H])[C@@]2([H])CC[C@@]2([H])C[C@@H](O)CC[C@]12C,InChIKey=SYGWGHVTLUBCEM-SDYDLROXSA-N,15.56,10.9,NaN,0.51,NaN,NaN,NaN,NaN,NaN,NaN,NaN,NaN,NaN,NaN
D-Glucuronic acid,HMDB00127,3.529,2,m,NA,0.1014,-1,O[C@H]1O[C@@H]([C@@H](O)[C@H](O)[C@H]1O)C(O)=O,InChIKey=AEMOLEFTQBMNLQ-WAXACMCWSA-N,3.07,-3,NaN,36.07,NaN,NaN,NaN,NaN,NaN,NaN,NaN,NaN,NaN,NaN
N-Acetylneuraminic acid,HMDB00230,3.535,1,d,9.08,0.1273,-1,CC(=O)N[C@@H]1[C@@H](O)C[C@](O)(O[C@H]1[C@H](O)[C@H](O)CO)C(O)=O,InChIKey=SQVRNKJHWKZAKO-PFQGKNLYSA-N,2.89,6.96,0.57,8.6,NaN,NaN,11.9,NaN,NaN,NaN,NaN,NaN,NaN,NaN
Cholesterol,HMDB00067,3.535,2,m,NA,0.0543,0,[H][C@@]12CC[C@H]([C@H](C)CCCC(C)C)[C@@]1(C)CC[C@@]1([H])[C@@]2([H])CC=C2CC(O)CC[C@]12C,InChIKey=HVYWMOMLDIMFJA-FNOPAARDSA-N,3.17,-0.54,3567.92,NaN,NaN,NA,6.31,NaN,NaN,NaN,NaN,NaN,NaN,NaN
2-Phenylaminoadenosine,HMDB01069,3.535,1,m,NA,0.0088,0,NC1=C2N=CN(C3OC(CO)C(O)C3O)C2=NC(NC2=CC=CC=C2)=N1,InChIKey=SCNILGOVBBRMBK-UHFFFAOYSA-N,0.9,7.43,NA,NA,NA,NA,NA,NA,NA,NA,NA,NA,NA,NA
Anatabine,HMDB04476,3.535,1,m,NA,0.064,1,C1N[C@@H](CC=C1)C1=CN=CC=C1,InChIKey=SOPPBXUYQGUQHE-JTQLQIEISA-N,1.86,-6.7,NA,NA,NA,NA,NA,NA,NA,NA,NA,NA,NA,NA
Hesperidin,HMDB03265,3.535,1,m,NA,0.0298,0,COC1=CC=C(C=C1O)[C@@H]1CC(=O)C2=C(O1)C=C(OC1O[C@H](CO[C@H]3O[C@@H](C)[C@@H](O)[C@@H](O)[C@H]3O)[C@H](O)[C@H](O)[C@H]1O)C=C2O,InChIKey=QUQPHWDTPGMPEX-UNZJSITISA-N,14.58,-3,NA,NA,NA,NA,NA,NA,NA,NA,NA,NA,NA,NA
Stachyose,HMDB03553,3.535,1,t,9.63,0.2817,0,OC[C@H]1O[C@@](CO)(O[C@H]2O[C@H](CO[C@H]3O[C@H](CO[C@H]4O[C@H](CO)[C@H](O)[C@H](O)[C@H]4O)[C@H](O)[C@H](O)[C@H]3O)[C@@H](O)[C@H](O)[C@H]2O)[C@@H](O)[C@@H]1O,InChIKey=UQZIYBXSHAGNOE-XNSRJBNMSA-N,14.58,-3,NA,NA,NA,NA,NA,NA,NA,NA,NA,NA,NA,NA