Metabolite,HMDB Name,Shift (ppm),Hs,Type,J (Hz),Height,Physiological Charge,SMILES,InChlKey,pKa (Strongest Acidic),pKa (Strongest Basic),Blood,Urine,Feces,Saliva,Cerebrospinal Fluid (CSF),Amniotic Fluid,Aqueous Humour,Ascites Fluid,Breast Milk,Lymph,Sweat,Tears
Naringenin,HMDB02670,6.815,2,m,NA,0.0474,0,OC1=CC=C(C=C1)[C@@H]1CC(=O)C2=C(O)C=C(O)C=C2O1,InChIKey=FTVWIRXFELQLPI-ZDUSSCGKSA-N,18.2,9.79,NaN,NaN,NaN,NaN,NaN,NaN,NaN,NaN,NaN,NaN,NaN,NaN
2-Aminobenzoic acid,HMDB01123,6.825,1,ddd,7.92 7.07 1.18,0.6937,-1,NC1=CC=CC=C1C(O)=O,InChIKey=RWZYAGGXGHYGMB-UHFFFAOYSA-N,0.5,9.53,0.0155,0.31,NaN,NaN,0.001,NaN,NaN,NaN,NaN,NaN,NaN,NaN
3.4-Dihydroxybenzeneacetic acid,HMDB01336,6.825,1,d,1.93,0.3771,-1,OC(=O)CC1=CC=C(O)C(O)=C1,InChIKey=CFFZDZCDUFSOFZ-UHFFFAOYSA-N,4.92,2.94,0.019,2.41,NaN,NaN,0.0025,NaN,NaN,NaN,NaN,NaN,NaN,NaN
5-Hydroxyindoleacetic acid,HMDB00763,6.825,1,dd,8.68 2.34,0.1657,-1,OC(=O)CC1=CNC2=CC=C(O)C=C12,InChIKey=DUUGKQCEGZLZNO-UHFFFAOYSA-N,3.16,4.95,0.0516,1.55,NaN,NaN,0.082666667,NaN,NaN,NaN,NaN,NaN,NaN,NaN
Symmetric dimethylarginine,HMDB03334,6.825,3,d,5.63,0.1197,1,CN\C(NCCC[C@H](N)C(O)=O)=N/C,InChIKey=HVPFXCBJHIIJGS-LURJTMIESA-N,14.58,-3,0.502,12.4,NaN,0.35,NaN,NaN,NaN,NaN,NaN,NaN,NaN,NaN
3-Hydroxyphenylacetic acid,HMDB00440,6.825,1,m,NA,0.4144,-1,OC(=O)CC1=CC=CC(O)=C1,InChIKey=FVMDYYGIDFPZAX-UHFFFAOYSA-N,13.62,8.23,NaN,11.85,NaN,NaN,NaN,NaN,NaN,NaN,NaN,NaN,NaN,NaN
Daidzein,HMDB03312,6.825,2,m,NA,0.7282,-1,OC1=CC=C(C=C1)C1=COC2=C(C=CC(O)=C2)C1=O,InChIKey=ZQSIJRDFPHDXIC-UHFFFAOYSA-N,14.58,-3,NaN,4.11,NaN,NaN,NaN,NaN,NaN,NaN,NaN,NaN,NaN,NaN
DL-Dopa,HMDB00609,6.825,1,d,2.09,0.8005,0,NC(CC1=CC=C(O)C(O)=C1)C(O)=O,InChIKey=WTDRDQBEARUVNC-UHFFFAOYSA-N,4.26,10.29,NaN,NaN,NaN,NaN,NaN,NaN,NaN,NaN,NaN,NaN,NaN,NaN
Hydroquinone,HMDB02434,6.825,4,s,NA,1,0,OC1=CC=C(O)C=C1,InChIKey=QIGBRXMKCJKVMJ-UHFFFAOYSA-N,17.11,-6.6,NaN,NaN,NaN,NaN,NaN,NaN,NaN,NaN,NaN,NaN,NaN,NaN
Naringin,HMDB02927,6.825,2,d,8.58,0.0723,0,C[C@@H]1O[C@@H](O[C@@H]2[C@@H](O)[C@H](O)[C@@H](CO)O[C@H]2OC2=CC(O)=C3C(=O)C[C@H](OC3=C2)C2=CC=C(O)C=C2)[C@H](O)[C@H](O)[C@H]1O,InChIKey=DFPMSGMNTNDNHN-ZPHOTFPESA-N,3.04,-3.3,NaN,NaN,NaN,NaN,NaN,NaN,NaN,NaN,NaN,NaN,NaN,NaN
p-Aminobenzoic acid,HMDB01392,6.825,2,q,4.51,1,-1,NC1=CC=C(C=C1)C(O)=O,InChIKey=ALYNCZNDIQEVRV-UHFFFAOYSA-N,9.4,-3.5,NaN,NaN,NaN,NaN,NaN,NaN,NaN,NaN,NaN,NaN,NaN,NaN
L-Dopa,HMDB00181,6.835,2,d,1.83,1,0,N[C@@H](CC1=CC(O)=C(O)C=C1)C(O)=O,InChIKey=WTDRDQBEARUVNC-LURJTMIESA-N,0.76,-3.6,0.00723,0.0136,NaN,NaN,NaN,NaN,NaN,NaN,NaN,NaN,NaN,NaN
Tiglic acid,HMDB01470,6.835,1,m,NA,0.0383,-1,C\C=C(/C)C(O)=O,InChIKey=UIERETOOQGIECD-ONEGZZNKSA-N,2.16,-2,NA,NA,NA,NA,NA,NA,NA,NA,NA,NA,NA,NA
Vinylacetylglycine,HMDB00894,6.835,1,td,NA,0.2416,-1,OC(=O)CNC(=O)CC=C,InChIKey=UKISAGFGRDHYFO-UHFFFAOYSA-N,1.86,-3,NA,NA,NA,NA,NA,NA,NA,NA,NA,NA,NA,NA
3.4-Dihydroxyhydrocinnamic acid,HMDB00423,6.835,1,d,2.1,0.8785,-1,OC(=O)CCC1=CC=C(O)C(O)=C1,InChIKey=DZAUWHJDUNRCTF-UHFFFAOYSA-N,8.88,5.16,NaN,0.27,NaN,NaN,NaN,NaN,NaN,NaN,NaN,NaN,NaN,NaN
4-Methylcatechol,HMDB00873,6.835,1,d,8.04,0.3366,0,CC1=CC(O)=C(O)C=C1,InChIKey=ZBCATMYQYDCTIZ-UHFFFAOYSA-N,19.96,-3.1,NaN,NaN,NaN,NaN,NaN,NaN,NaN,NaN,NaN,NaN,NaN,NaN
m-Cresol,HMDB02048,6.835,1,m,NA,0.0918,0,CC1=CC(O)=CC=C1,InChIKey=RLSSMJSEOOYNOY-UHFFFAOYSA-N,8.76,-1.6,NaN,0.13,NaN,NaN,NaN,NaN,NaN,NaN,NaN,NaN,NaN,NaN
p-Cresol,HMDB01858,6.835,2,m,NA,0.2251,0,CC1=CC=C(O)C=C1,InChIKey=IWDCLRJOBJJRNH-UHFFFAOYSA-N,11.3,10.32,NaN,26.365,NaN,NaN,NaN,NaN,NaN,NaN,NaN,NaN,NaN,NaN
3-Methoxytyramine,HMDB00022,6.845,1,dd,8.08 1.87,0.0346,1,COC1=C(O)C=CC(CCN)=C1,InChIKey=DIVQKHQLANKJQO-UHFFFAOYSA-N,1.08,-3.6,0.0025,0.6,NaN,NaN,NaN,NaN,NaN,NaN,NaN,NaN,NaN,NaN
L-Kynurenine,HMDB00684,6.845,1,dd,8.39 0.96,0.0552,0,N[C@@H](CC(=O)C1=CC=CC=C1N)C(O)=O,InChIKey=YGPSJZOEDVAXAB-QMMMGPOBSA-N,13.62,0.28,1.5,1.63,NaN,NaN,0.0019,NaN,NaN,NaN,NaN,NaN,NaN,NaN
Catechin,HMDB02780,6.845,1,d,1.98,0.1761,0,O[C@H]1CC2=C(O)C=C(O)C=C2O[C@@H]1C1=CC(O)=C(O)C=C1,InChIKey=PFTAWBLQPZVEMU-DZGCQCFKSA-N,0.83,4.95,NaN,NaN,NaN,NaN,NaN,NaN,NaN,NaN,NaN,NaN,NaN,NaN
3.4-Dihydroxyphenylglycol,HMDB00318,6.855,1,dd,8.19 2.01,0.123,0,OCC(O)C1=CC(O)=C(O)C=C1,InChIKey=MTVWFVDWRVYDOR-UHFFFAOYSA-N,1.83,-3.6,0.006,NaN,NaN,NaN,NaN,NaN,NaN,NaN,NaN,NaN,NaN,NaN
L-Thyronine,HMDB00667,6.855,2,d,NA,0.2868,0,N[C@@H](CC1=CC=C(OC2=CC=C(O)C=C2)C=C1)C(O)=O,InChIKey=KKCIOUWDFWQUBT-AWEZNQCLSA-N,3.41,9.57,0.29,0.0024,NaN,NaN,NaN,NaN,NaN,NaN,NaN,NaN,NaN,NaN
2-Phenylaminoadenosine,HMDB01069,6.855,1,t,NA,0.0175,0,NC1=C2N=CN(C3OC(CO)C(O)C3O)C2=NC(NC2=CC=CC=C2)=N1,InChIKey=SCNILGOVBBRMBK-UHFFFAOYSA-N,0.9,7.43,NA,NA,NA,NA,NA,NA,NA,NA,NA,NA,NA,NA
Flavone,HMDB03075,6.855,1,s,NA,1,0,O=C1C=C(OC2=CC=CC=C12)C1=CC=CC=C1,InChIKey=VHBFFQKBGNRLFZ-UHFFFAOYSA-N,1.86,-0.52,NA,NA,NA,NA,NA,NA,NA,NA,NA,NA,NA,NA
Pteroyltriglutamic acid,HMDB01902,6.855,1,d,8.69,0.0602,-4,NC1=NC(=O)C2=NC(CNC3=CC=C(C=C3)C(=O)NC(CCC(=O)NC(CCC(=O)NC(CCC(O)=O)C(O)=O)C(O)=O)C(O)=O)=CN=C2N1,InChIKey=WOLQREOUPKZMEX-UHFFFAOYSA-N,13.42,-0.26,NA,NA,NA,NA,NA,NA,NA,NA,NA,NA,NA,NA
3-(3-Hydroxyphenyl)-3-hydroxypropanoic acid,HMDB02643,6.855,1,dd,8.08 1.81,0.5123,-1,OC(CC(O)=O)C1=CC(O)=CC=C1,InChIKey=KHTAGVZHYUZYMF-UHFFFAOYSA-N,8.27,-2.8,NaN,8.275,NaN,NaN,NaN,NaN,NaN,NaN,NaN,NaN,NaN,NaN
Norepinephrine,HMDB00216,6.865,17,m,NA,0.5277,1,NC[C@H](O)C1=CC(O)=C(O)C=C1,InChIKey=SFLSHLFXELFNJZ-QMMMGPOBSA-N,10.28,-1.2,0.001416667,0.026433333,NaN,NaN,0.0107,NaN,NaN,NaN,NaN,NaN,NaN,NaN
Epinephrine,HMDB00068,6.865,1,dd,8.19 1.96,0.0961,1,CNC[C@H](O)C1=CC=C(O)C(O)=C1,InChIKey=UCTWMZQNUQWSLP-VIFPVBQESA-N,3.91,-3.6,0.00164,0.004333333,NaN,NaN,0.00012,NaN,NaN,NaN,NaN,NaN,NaN,NaN
2-Aminobenzoic acid,HMDB01123,6.865,1,dd,8.12 0.74,0.6285,-1,NC1=CC=CC=C1C(O)=O,InChIKey=RWZYAGGXGHYGMB-UHFFFAOYSA-N,0.5,9.53,0.0155,0.31,NaN,NaN,0.001,NaN,NaN,NaN,NaN,NaN,NaN,NaN
5-Hydroxy-L-tryptophan,HMDB00472,6.865,14,dd,8.72 2.31,0.4832,0,NC(CC1=CNC2=C1C=C(O)C=C2)C(O)=O,InChIKey=LDCYZAJDBXYCGN-UHFFFAOYSA-N,4.65,9.53,0.018,0.0078,NaN,NaN,NaN,NaN,NaN,NaN,NaN,NaN,NaN,NaN
3.4-Dihydroxybenzeneacetic acid,HMDB01336,6.865,1,d,8.05,0.3365,-1,OC(=O)CC1=CC=C(O)C(O)=C1,InChIKey=CFFZDZCDUFSOFZ-UHFFFAOYSA-N,4.92,2.94,0.019,2.41,NaN,NaN,0.0025,NaN,NaN,NaN,NaN,NaN,NaN,NaN
p-Hydroxyphenylacetic acid,HMDB00020,6.865,2,d,8.6,0.4744,-1,OC(=O)CC1=CC=C(O)C=C1,InChIKey=XQXPVVBIMDBYFF-UHFFFAOYSA-N,18.3,-1.9,0.23,9.2,NaN,16.055,NaN,NaN,NaN,NaN,NaN,NaN,NaN,NaN
4-Hydroxyphenylpyruvic acid,HMDB00707,6.865,1,m,NA,0.6954,-1,OC(=O)C(=O)CC1=CC=C(O)C=C1,InChIKey=KKADPXVIOXHVKN-UHFFFAOYSA-N,4.05,1.36,0.37,NaN,NaN,NaN,NaN,NaN,NaN,NaN,NaN,NaN,NaN,NaN
Hydroxyphenyllactic acid,HMDB00755,6.865,2,d,8.28,0.874,-1,OC(CC1=CC=C(O)C=C1)C(O)=O,InChIKey=JVGVDSSUAVXRDY-UHFFFAOYSA-N,-1.1,-3,0.64,1.1,NaN,25.1,NaN,NaN,NaN,NaN,NaN,NaN,NaN,NaN
Dopamine,HMDB00073,6.865,1,d,2.11,0.6795,1,NCCC1=CC=C(O)C(O)=C1,InChIKey=VYFYYTLLBUKUHU-UHFFFAOYSA-N,2.61,2.09,22.5,0.142333333,NaN,NaN,0.00325,NaN,NaN,NaN,NaN,NaN,NaN,NaN
3.4-Dihydroxymandelic acid,HMDB01866,6.865,1,dd,8.16 2.10,0.4668,-1,OC(C(O)=O)C1=CC=C(O)C(O)=C1,InChIKey=RGHMISIYKIHAJW-UHFFFAOYSA-N,3.82,4.95,NaN,NaN,NaN,NaN,NaN,NaN,NaN,NaN,NaN,NaN,NaN,NaN
Gentisic acid,HMDB00152,6.865,1,d,8.76,1,-1,OC(=O)C1=CC(O)=CC=C1O,InChIKey=WXTMDXOMEHJXQO-UHFFFAOYSA-N,1.54,-0.88,NaN,1.35,NaN,NaN,NaN,NaN,NaN,NaN,NaN,NaN,NaN,NaN
N-Acetyl-L-tyrosine,HMDB00866,6.865,19,d,8.46,0.4344,-1,CC(=O)N[C@@H](CC1=CC=C(O)C=C1)C(O)=O,InChIKey=CAHKINHBCWCHCF-JTQLQIEISA-N,4.09,9.9,NaN,NaN,NaN,NaN,NaN,NaN,NaN,NaN,NaN,NaN,NaN,NaN
Pyrrole-2-carboxylic acid,HMDB04230,6.865,1,dd,NA,0.0505,-1,OC(=O)C1=CC=CN1,InChIKey=WRHZVMBBRYBTKZ-UHFFFAOYSA-N,1.86,-6.7,NaN,NaN,NaN,NaN,NaN,NaN,NaN,NaN,NaN,NaN,NaN,NaN
Ranitidine,HMDB01930,6.865,1,s,NA,0.0185,1,CN\C(NCCSCC1=CC=C(CN(C)C)O1)=C/[N+]([O-])=O,InChIKey=VMXUWOKSQNHOCA-UKTHLTGXSA-N,1.87,10,NaN,NaN,NaN,NaN,NaN,NaN,NaN,NaN,NaN,NaN,NaN,NaN
Vanillactic acid,HMDB00913,6.865,1,d,1.65,0.1886,-1,COC1=CC(CC(O)C(O)=O)=CC=C1O,InChIKey=SVYIZYRTOYHQRE-UHFFFAOYSA-N,4.95,4.97,NaN,NaN,NaN,NaN,NaN,NaN,NaN,NaN,NaN,NaN,NaN,NaN
Verapamil,HMDB01850,6.865,1,d,1.82,0.1561,1,COC1=C(OC)C=C(CCN(C)CCCC(C#N)(C(C)C)C2=CC(OC)=C(OC)C=C2)C=C1,InChIKey=SGTNSNPWRIOYBX-UHFFFAOYSA-N,12.45,-0.16,NaN,NaN,NaN,NaN,NaN,NaN,NaN,NaN,NaN,NaN,NaN,NaN
4-Aminohippuric acid,HMDB01867,6.867,2,d,8.65,0.8991,-1,NC1=CC=C(C=C1)C(=O)NCC(O)=O,InChIKey=HSMNQINEKMPTIC-UHFFFAOYSA-N,1.16,4.95,18,0.3,NaN,NaN,NaN,NaN,NaN,NaN,NaN,NaN,NaN,NaN
Pyrocatechol,HMDB00957,6.873,2,m,NA,0.9499,0,OC1=CC=CC=C1O,InChIKey=YCIMNLLNPGFGHC-UHFFFAOYSA-N,3.92,4.95,NaN,13.9,NaN,NaN,NaN,NaN,NaN,NaN,NaN,NaN,NaN,NaN
Homovanillic acid,HMDB00118,6.875,1,d,8.05,0.1884,-1,COC1=CC(CC(O)=O)=CC=C1O,InChIKey=QRMZSPFSDQBLIX-UHFFFAOYSA-N,1.86,-4.8,0.082,NA,NaN,NaN,0.16,NaN,NaN,NaN,NaN,NaN,NaN,NaN
3-Hydroxyphenylacetic acid,HMDB00440,6.875,1,dd,7.55 0.41,0.1858,-1,OC(=O)CC1=CC=CC(O)=C1,InChIKey=FVMDYYGIDFPZAX-UHFFFAOYSA-N,13.62,8.23,NaN,11.85,NaN,NaN,NaN,NaN,NaN,NaN,NaN,NaN,NaN,NaN
Daidzein,HMDB03312,6.875,1,d,2.2,0.484,-1,OC1=CC=C(C=C1)C1=COC2=C(C=CC(O)=C2)C1=O,InChIKey=ZQSIJRDFPHDXIC-UHFFFAOYSA-N,14.58,-3,NaN,4.11,NaN,NaN,NaN,NaN,NaN,NaN,NaN,NaN,NaN,NaN
Liothyronine,HMDB00265,6.875,1,d,8.86,0.2103,0,N[C@@H](CC1=CC(I)=C(OC2=CC=C(O)C(I)=C2)C(I)=C1)C(O)=O,InChIKey=AUYYCJSJGJYCDS-LBPRGKRZSA-N,1.86,-2.8,NaN,NaN,NaN,0,NaN,NaN,NaN,NaN,NaN,NaN,NaN,NaN
Clotrimazole,HMDB01922,6.885,1,t,1.43,0.1247,0,ClC1=CC=CC=C1C(N1C=CN=C1)(C1=CC=CC=C1)C1=CC=CC=C1,InChIKey=VNFPBHJOKIVQEB-UHFFFAOYSA-N,10.23,-1.7,NA,NA,NA,NA,NA,NA,NA,NA,NA,NA,NA,NA
3-Hydroxymandelic acid,HMDB00750,6.885,1,ddd,8.14 2.53 0.83,0.2798,-1,OC(C(O)=O)C1=CC(O)=CC=C1,InChIKey=OLSDAJRAVOVKLG-UHFFFAOYSA-N,3.37,5.02,NaN,NaN,NaN,NaN,NaN,NaN,NaN,NaN,NaN,NaN,NaN,NaN
Homoveratric acid,HMDB00434,6.885,1,dd,NA,0.1383,-1,COC1=CC=C(CC(O)=O)C=C1OC,InChIKey=WUAXWQRULBZETB-UHFFFAOYSA-N,19.52,-0.58,NaN,NaN,NaN,NaN,NaN,NaN,NaN,NaN,NaN,NaN,NaN,NaN
Serotonin,HMDB00259,6.885,1,dd,8.71 2.40,0.2855,1,NCCC1=CNC2=CC=C(O)C=C12,InChIKey=QZAYGJVTTNCVMB-UHFFFAOYSA-N,4.51,-0.4,NaN,0.065,NaN,NaN,0.00345,NaN,NaN,NaN,NaN,NaN,NaN,NaN
Venlafaxine,HMDB05016,6.885,2,d,8.75,0.0883,1,COC1=CC=C(C=C1)C(CN(C)C)C1(O)CCCCC1,InChIKey=PNVNVHUZROJLTJ-UHFFFAOYSA-N,1.87,10,NaN,NaN,NaN,NaN,NaN,NaN,NaN,NaN,NaN,NaN,NaN,NaN
Famotidine,HMDB01919,6.89,1,s,NA,0.5242,1,NC(=N)NC1=NC(CSCCC(=N)NS(N)(=O)=O)=CS1,InChIKey=XUFQPHANEAPEMJ-UHFFFAOYSA-N,1.73,-5.5,NaN,NaN,NaN,NaN,NaN,NaN,NaN,NaN,NaN,NaN,NaN,NaN
L-Tyrosine,HMDB00158,6.892,2,m,NA,0.0335,0,N[C@@H](CC1=CC=C(O)C=C1)C(O)=O,InChIKey=OUYCCCASQSFEME-QMMMGPOBSA-N,4.22,-3.3,99.625,10.466,NaN,NA,9.125,NaN,NaN,NaN,NaN,NaN,NaN,NaN
3-Methoxybenzenepropanoic acid,HMDB11751,6.895,29,m,NA,0.0857,-1,COC1=CC(CCC(O)=O)=CC=C1,InChIKey=BJJQJLOZWBZEGA-UHFFFAOYSA-N,1.86,-6.7,NaN,NaN,NaN,NaN,NaN,NaN,NaN,NaN,NaN,NaN,NaN,NaN
4-Methoxyphenylacetic acid,HMDB02072,6.895,2,d,8.51,0.2456,-1,COC1=CC=C(CC(O)=O)C=C1,InChIKey=NRPFNQUDKRYCNX-UHFFFAOYSA-N,13.04,6.91,NaN,NaN,NaN,NaN,NaN,NaN,NaN,NaN,NaN,NaN,NaN,NaN
Guaiacol,HMDB01398,6.895,3,m,NA,0.4549,0,COC1=CC=CC=C1O,InChIKey=LHGVFZTZFXWLCP-UHFFFAOYSA-N,3.93,-3,NaN,NaN,NaN,NaN,NaN,NaN,NaN,NaN,NaN,NaN,NaN,NaN
Hydroxyphenylacetylglycine,HMDB00735,6.895,1,d,8.46,0.6624,-1,OC(=O)CNC(=O)CC1=CC=C(O)C=C1,InChIKey=CPPDWYIPKSSNNM-UHFFFAOYSA-N,3.98,4.99,NaN,NaN,NaN,NaN,NaN,NaN,NaN,NaN,NaN,NaN,NaN,NaN
3.4-Dihydroxymandelic acid,HMDB01866,6.903,1,d,8.13,1,-1,OC(C(O)=O)C1=CC=C(O)C(O)=C1,InChIKey=RGHMISIYKIHAJW-UHFFFAOYSA-N,3.82,4.95,NaN,NaN,NaN,NaN,NaN,NaN,NaN,NaN,NaN,NaN,NaN,NaN
Vanillylmandelic acid,HMDB00291,6.903,4,m,NA,0.3223,-1,COC1=C(O)C=CC(=C1)[C@H](O)C(O)=O,InChIKey=CGQCWMIAEPEHNQ-QMMMGPOBSA-N,8.93,-3.7,NaN,NA,NaN,NaN,NaN,NaN,NaN,NaN,NaN,NaN,NaN,NaN
L-Dopa,HMDB00181,6.905,2,d,8.1,0.9214,0,N[C@@H](CC1=CC(O)=C(O)C=C1)C(O)=O,InChIKey=WTDRDQBEARUVNC-LURJTMIESA-N,0.76,-3.6,0.00723,0.0136,NaN,NaN,NaN,NaN,NaN,NaN,NaN,NaN,NaN,NaN
Guaifenesin,HMDB04998,6.905,1,m,NA,0.0799,0,COC1=CC=CC=C1OCC(O)CO,InChIKey=HSRJKNPTNIJEKV-UHFFFAOYSA-N,1.87,10,NA,NA,NA,NA,NA,NA,NA,NA,NA,NA,NA,NA
Luteolin,HMDB05800,6.905,1,dd,NA,0.017,-1,OC1=CC2=C(C(O)=C1)C(=O)C=C(O2)C1=CC=C(O)C(O)=C1,InChIKey=IQPNAANSBPBGFQ-UHFFFAOYSA-N,1.87,10,NA,NA,NA,NA,NA,NA,NA,NA,NA,NA,NA,NA
3.4-Dihydroxyhydrocinnamic acid,HMDB00423,6.905,1,d,8.08,1,-1,OC(=O)CCC1=CC=C(O)C(O)=C1,InChIKey=DZAUWHJDUNRCTF-UHFFFAOYSA-N,8.88,5.16,NaN,0.27,NaN,NaN,NaN,NaN,NaN,NaN,NaN,NaN,NaN,NaN
4-Nitrophenol,HMDB01232,6.905,2,m,5.52 5.22 0.88,0.8838,0,OC1=CC=C(C=C1)[N+]([O-])=O,InChIKey=BTJIUGUIPKRLHP-UHFFFAOYSA-N,10.76,-6,NaN,NaN,NaN,NaN,NaN,NaN,NaN,NaN,NaN,NaN,NaN,NaN
5-Methoxysalicylic acid,HMDB01868,6.905,1,d,8.99,0.1416,-1,COC1=CC(C(O)=O)=C(O)C=C1,InChIKey=IZZIWIAOVZOBLF-UHFFFAOYSA-N,11.57,4.95,NaN,NaN,NaN,NaN,NaN,NaN,NaN,NaN,NaN,NaN,NaN,NaN
DL-Dopa,HMDB00609,6.905,1,d,8.09,1,0,NC(CC1=CC=C(O)C(O)=C1)C(O)=O,InChIKey=WTDRDQBEARUVNC-UHFFFAOYSA-N,4.26,10.29,NaN,NaN,NaN,NaN,NaN,NaN,NaN,NaN,NaN,NaN,NaN,NaN
Quercetin,HMDB05794,6.91,1,d,8.47,0.9823,-1,OC1=CC(O)=C2C(OC(=C(O)C2=O)C2=CC(O)=C(O)C=C2)=C1,InChIKey=REFJWTPEDVJJIY-UHFFFAOYSA-N,1.87,10,0.045,0.0065,NaN,NaN,NaN,NaN,NaN,NaN,NaN,NaN,NaN,NaN
Tyramine,HMDB00306,6.915,2,d,8.52,0.9697,1,NCCC1=CC=C(O)C=C1,InChIKey=DZGWFCGJZKJUFP-UHFFFAOYSA-N,10.78,-6.3,0.004995,0.315666667,NaN,NaN,NaN,NaN,NaN,NaN,NaN,NaN,NaN,NaN
3-Methoxytyrosine,HMDB01434,6.915,13,d,8.06,0.2385,0,COC1=CC(CC(N)C(O)=O)=CC=C1O,InChIKey=PFDUUKDQEHURQC-UHFFFAOYSA-N,1.83,-3.6,0.089,0.06,NaN,NaN,NaN,NaN,NaN,NaN,NaN,NaN,NaN,NaN
Dopamine,HMDB00073,6.915,1,d,8.07,0.8362,1,NCCC1=CC=C(O)C(O)=C1,InChIKey=VYFYYTLLBUKUHU-UHFFFAOYSA-N,2.61,2.09,22.5,0.142333333,NaN,NaN,0.00325,NaN,NaN,NaN,NaN,NaN,NaN,NaN
Hesperidin,HMDB03265,6.915,1,m,NA,0.0639,0,COC1=CC=C(C=C1O)[C@@H]1CC(=O)C2=C(O1)C=C(OC1O[C@H](CO[C@H]3O[C@@H](C)[C@@H](O)[C@@H](O)[C@H]3O)[C@H](O)[C@H](O)[C@H]1O)C=C2O,InChIKey=QUQPHWDTPGMPEX-UNZJSITISA-N,14.58,-3,NA,NA,NA,NA,NA,NA,NA,NA,NA,NA,NA,NA
3-Chlorotyrosine,HMDB01885,6.915,1,d,8.26,1,0,NC(CC1=CC(Cl)=C(O)C=C1)C(O)=O,InChIKey=ACWBBAGYTKWBCD-UHFFFAOYSA-N,18.22,-0.88,NaN,7.00E-04,NaN,NaN,NaN,NaN,NaN,NaN,NaN,NaN,NaN,NaN
Kaempferol,HMDB05801,6.915,2,m,NA,0.1871,-1,OC1=CC=C(C=C1)C1=C(O)C(=O)C2=C(O1)C=C(O)C=C2O,InChIKey=IYRMWMYZSQPJKC-UHFFFAOYSA-N,1.87,10,NaN,NaN,NaN,NaN,NaN,NaN,NaN,NaN,NaN,NaN,NaN,NaN
o-Cresol,HMDB02055,6.915,2,m,NA,0.1303,0,CC1=CC=CC=C1O,InChIKey=QWVGKYWNOKOFNN-UHFFFAOYSA-N,9.51,-1.6,NaN,NaN,NaN,NaN,NaN,NaN,NaN,NaN,NaN,NaN,NaN,NaN
Phenylephrine,HMDB02182,6.915,1,dd,8.08 1.81,0.1116,1,CNC[C@H](O)C1=CC(O)=CC=C1,InChIKey=SONNWYBIRXJNDC-VIFPVBQESA-N,4.82,9.25,NaN,NaN,NaN,NaN,NaN,NaN,NaN,NaN,NaN,NaN,NaN,NaN
5-Hydroxytryptophol,HMDB01855,6.925,1,d,1.98,0.1608,0,OCCC1=CNC2=CC=C(O)C=C12,InChIKey=KQROHCSYOGBQGJ-UHFFFAOYSA-N,1.44,-2.9,9.00E-04,NaN,NaN,NaN,0.004,NaN,NaN,NaN,NaN,NaN,NaN,NaN
trans-Ferulic acid,HMDB00954,6.925,1,d,8.16,0.1855,-1,COC1=C(O)C=CC(\C=C\C(O)=O)=C1,InChIKey=KSEBMYQBYZTDHS-HWKANZROSA-N,0.83,-1.6,0.039,0.5,NaN,NaN,NaN,NaN,NaN,NaN,NaN,NaN,NaN,NaN
Guaifenesin,HMDB04998,6.925,1,m,NA,0.0821,0,COC1=CC=CC=C1OCC(O)CO,InChIKey=HSRJKNPTNIJEKV-UHFFFAOYSA-N,1.87,10,NA,NA,NA,NA,NA,NA,NA,NA,NA,NA,NA,NA
3-(3-Hydroxyphenyl)-3-hydroxypropanoic acid,HMDB02643,6.925,1,br. s.,NA,1,-1,OC(CC(O)=O)C1=CC(O)=CC=C1,InChIKey=KHTAGVZHYUZYMF-UHFFFAOYSA-N,8.27,-2.8,NaN,8.275,NaN,NaN,NaN,NaN,NaN,NaN,NaN,NaN,NaN,NaN
4-Hydroxybenzoic acid,HMDB00500,6.925,2,d,8.79,1,-1,OC(=O)C1=CC=C(O)C=C1,InChIKey=FJKROLUGYXJWQN-UHFFFAOYSA-N,2.5,-3.9,NaN,2.753333333,NaN,30.23,NaN,NaN,NaN,NaN,NaN,NaN,NaN,NaN
m-Coumaric acid,HMDB01713,6.925,1,dd,8.08 2.08,0.4626,-1,OC(=O)\C=C\C1=CC=CC(O)=C1,InChIKey=KKSDGJDHHZEWEP-SNAWJCMRSA-N,9.43,1.59,NaN,0.065142857,NaN,NaN,NaN,NaN,NaN,NaN,NaN,NaN,NaN,NaN
Melatonin,HMDB01389,6.925,1,dd,8.83 2.38,0.1016,0,COC1=CC2=C(NC=C2CCNC(C)=O)C=C1,InChIKey=DRLFMBDRBRZALE-UHFFFAOYSA-N,4.12,-7.2,NaN,NaN,NaN,NaN,NaN,NaN,NaN,NaN,NaN,NaN,NaN,NaN
3.4-Dihydroxymandelic acid,HMDB01866,6.933,1,d,2.07,0.7085,-1,OC(C(O)=O)C1=CC=C(O)C(O)=C1,InChIKey=RGHMISIYKIHAJW-UHFFFAOYSA-N,3.82,4.95,NaN,NaN,NaN,NaN,NaN,NaN,NaN,NaN,NaN,NaN,NaN,NaN
Iodotyrosine,HMDB00021,6.935,1,d,8.32,1,0,N[C@@H](CC1=CC=C(O)C(I)=C1)C(O)=O,InChIKey=UQTZMGFTRHFAAM-ZETCQYMHSA-N,18.27,-1.4,0.00069,NaN,NaN,NaN,NaN,NaN,NaN,NaN,NaN,NaN,NaN,NaN
3-Methoxytyramine,HMDB00022,6.935,1,d,8.08,0.0708,1,COC1=C(O)C=CC(CCN)=C1,InChIKey=DIVQKHQLANKJQO-UHFFFAOYSA-N,1.08,-3.6,0.0025,0.6,NaN,NaN,NaN,NaN,NaN,NaN,NaN,NaN,NaN,NaN
3.4-Dihydroxyphenylglycol,HMDB00318,6.935,2,m,NA,0.3683,0,OCC(O)C1=CC(O)=C(O)C=C1,InChIKey=MTVWFVDWRVYDOR-UHFFFAOYSA-N,1.83,-3.6,0.006,NaN,NaN,NaN,NaN,NaN,NaN,NaN,NaN,NaN,NaN,NaN
3-Hydroxymandelic acid,HMDB00750,6.935,1,t,1.98,0.5003,-1,OC(C(O)=O)C1=CC(O)=CC=C1,InChIKey=OLSDAJRAVOVKLG-UHFFFAOYSA-N,3.37,5.02,NaN,NaN,NaN,NaN,NaN,NaN,NaN,NaN,NaN,NaN,NaN,NaN
Caffeic acid,HMDB01964,6.935,18,d,8.19,0.9753,-1,OC(=O)\C=C/C1=CC=C(O)C(O)=C1,InChIKey=QAIPRVGONGVQAS-RQOWECAXSA-N,19.34,-1.6,NaN,NaN,NaN,NaN,NaN,NaN,NaN,NaN,NaN,NaN,NaN,NaN
Protocatechuic acid,HMDB01856,6.935,2,d,8.28,0.7549,-1,OC(=O)C1=CC(O)=C(O)C=C1,InChIKey=YQUVCSBJEUQKSH-UHFFFAOYSA-N,17.65,5.53,NaN,NaN,NaN,NaN,NaN,NaN,NaN,NaN,NaN,NaN,NaN,NaN
Pyrocatechol,HMDB00957,6.944,2,m,NA,1,0,OC1=CC=CC=C1O,InChIKey=YCIMNLLNPGFGHC-UHFFFAOYSA-N,3.92,4.95,NaN,13.9,NaN,NaN,NaN,NaN,NaN,NaN,NaN,NaN,NaN,NaN
Epinephrine,HMDB00068,6.945,1,d,8.21,0.1868,1,CNC[C@H](O)C1=CC=C(O)C(O)=C1,InChIKey=UCTWMZQNUQWSLP-VIFPVBQESA-N,3.91,-3.6,0.00164,0.004333333,NaN,NaN,0.00012,NaN,NaN,NaN,NaN,NaN,NaN,NaN
Epicatechin,HMDB01871,6.945,3,m,NA,1,0,O[C@@H]1CC2=C(O)C=C(O)C=C2O[C@@H]1C1=CC(O)=C(O)C=C1,InChIKey=PFTAWBLQPZVEMU-UKRRQHHQSA-N,1.73,4.95,0.625,0.13,NaN,NaN,NaN,NaN,NaN,NaN,NaN,NaN,NaN,NaN
Vanillic acid,HMDB00484,6.945,3,d,8.24,0.2335,-1,COC1=CC(=CC=C1O)C(O)=O,InChIKey=WKOLLVMJNQIZCI-UHFFFAOYSA-N,4.62,-1.4,4.8,11.2,NaN,NaN,NaN,NaN,NaN,NaN,NaN,NaN,NaN,NaN
5-Methoxytryptophan,HMDB02339,6.945,1,dd,8.80 2.48,0.075,0,COC1=CC2=C(NC=C2C[C@H](N)C(O)=O)C=C1,InChIKey=KVNPSKDDJARYKK-JTQLQIEISA-N,11.59,10,NA,NA,NA,NA,NA,NA,NA,NA,NA,NA,NA,NA
Daidzein,HMDB03312,6.945,1,dd,8.78 2.23,0.2853,-1,OC1=CC=C(C=C1)C1=COC2=C(C=CC(O)=C2)C1=O,InChIKey=ZQSIJRDFPHDXIC-UHFFFAOYSA-N,14.58,-3,NaN,4.11,NaN,NaN,NaN,NaN,NaN,NaN,NaN,NaN,NaN,NaN
Ortho-Hydroxyphenylacetic acid,HMDB00669,6.945,3,m,NA,0.3627,-1,OC(=O)CC1=CC=CC=C1O,InChIKey=CCVYRRGZDBSHFU-UHFFFAOYSA-N,3.2,-1.3,NaN,NaN,NaN,NaN,NaN,NaN,NaN,NaN,NaN,NaN,NaN,NaN
Phenylephrine,HMDB02182,6.945,1,br. s.,NA,0.1722,1,CNC[C@H](O)C1=CC(O)=CC=C1,InChIKey=SONNWYBIRXJNDC-VIFPVBQESA-N,4.82,9.25,NaN,NaN,NaN,NaN,NaN,NaN,NaN,NaN,NaN,NaN,NaN,NaN
trans-Aconitic acid,HMDB00958,6.945,2,s,NA,0.514,-3,OC(=O)C\C(=C/C(O)=O)C(O)=O,InChIKey=GTZCVFVGUGFEME-HNQUOIGGSA-N,1.48,5.01,NaN,NaN,NaN,NaN,NaN,NaN,NaN,NaN,NaN,NaN,NaN,NaN
Norepinephrine,HMDB00216,6.955,36,m,NA,1,1,NC[C@H](O)C1=CC(O)=C(O)C=C1,InChIKey=SFLSHLFXELFNJZ-QMMMGPOBSA-N,10.28,-1.2,0.001416667,0.026433333,NaN,NaN,0.0107,NaN,NaN,NaN,NaN,NaN,NaN,NaN
Homovanillic acid,HMDB00118,6.955,1,d,1.96,0.1232,-1,COC1=CC(CC(O)=O)=CC=C1O,InChIKey=QRMZSPFSDQBLIX-UHFFFAOYSA-N,1.86,-4.8,0.082,NA,NaN,NaN,0.16,NaN,NaN,NaN,NaN,NaN,NaN,NaN
3-Methoxytyrosine,HMDB01434,6.955,13,d,1.97,0.1578,0,COC1=CC(CC(N)C(O)=O)=CC=C1O,InChIKey=PFDUUKDQEHURQC-UHFFFAOYSA-N,1.83,-3.6,0.089,0.06,NaN,NaN,NaN,NaN,NaN,NaN,NaN,NaN,NaN,NaN
Hesperidin,HMDB03265,6.955,2,m,NA,0.1101,0,COC1=CC=C(C=C1O)[C@@H]1CC(=O)C2=C(O1)C=C(OC1O[C@H](CO[C@H]3O[C@@H](C)[C@@H](O)[C@@H](O)[C@H]3O)[C@H](O)[C@H](O)[C@H]1O)C=C2O,InChIKey=QUQPHWDTPGMPEX-UNZJSITISA-N,14.58,-3,NA,NA,NA,NA,NA,NA,NA,NA,NA,NA,NA,NA
5-Methoxytryptamine,HMDB04095,6.955,1,dd,8.78 2.45,0.0787,1,COC1=CC2=C(NC=C2CCN)C=C1,InChIKey=JTEJPPKMYBDEMY-UHFFFAOYSA-N,1.86,-6.7,NaN,NaN,NaN,NaN,NaN,NaN,NaN,NaN,NaN,NaN,NaN,NaN
Chlorogenic acid,HMDB03164,6.955,1,d,8.17,0.2403,-1,O[C@@H]1C[C@](O)(C[C@@H](OC(=O)\C=C\C2=CC(O)=C(O)C=C2)[C@@H]1O)C(O)=O,InChIKey=CWVRJTMFETXNAD-JUHZACGLSA-N,14.58,-3,NaN,NaN,NaN,NaN,NaN,NaN,NaN,NaN,NaN,NaN,NaN,NaN
o-Tyrosine,HMDB06050,6.955,2,m,NA,0.4359,0,NC(CC1=CC=CC=C1O)C(O)=O,InChIKey=WRFPVMFCRNYQNR-UHFFFAOYSA-N,1.08,-3.6,NaN,NaN,NaN,NaN,NaN,NaN,NaN,NaN,NaN,NaN,NaN,NaN
Pyrrole-2-carboxylic acid,HMDB04230,6.955,1,dd,NA,0.0495,-1,OC(=O)C1=CC=CN1,InChIKey=WRHZVMBBRYBTKZ-UHFFFAOYSA-N,1.86,-6.7,NaN,NaN,NaN,NaN,NaN,NaN,NaN,NaN,NaN,NaN,NaN,NaN