Metabolite,HMDB Name,Shift (ppm),Hs,Type,J (Hz),Height,Physiological Charge,SMILES,InChlKey,pKa (Strongest Acidic),pKa (Strongest Basic),Blood,Urine,Feces,Saliva,Cerebrospinal Fluid (CSF),Amniotic Fluid,Aqueous Humour,Ascites Fluid,Breast Milk,Lymph,Sweat,Tears
Tyramine,HMDB00306,2.935,2,t,7.3,0.8286,1,NCCC1=CC=C(O)C=C1,InChIKey=DZGWFCGJZKJUFP-UHFFFAOYSA-N,10.78,-6.3,0.004995,0.315666667,NaN,NaN,NaN,NaN,NaN,NaN,NaN,NaN,NaN,NaN
5-Hydroxylysine,HMDB00450,2.935,12,m,NA,0.9581,1,NC[C@H](O)CC[C@H](N)C(O)=O,InChIKey=YSMODUONRAFBET-UHNVWZDZSA-N,1.87,-3,2.5,0.555,NaN,NaN,NaN,NaN,NaN,NaN,NaN,NaN,NaN,NaN
2-Methyl-3-ketovaleric acid,HMDB00408,2.935,1,m,6.78,0.1479,-1,CCC(=O)C(C)C(O)=O,InChIKey=QTLYPQZWYOHATR-UHFFFAOYSA-N,4.09,-1.4,NaN,1.1,NaN,NaN,NaN,NaN,NaN,NaN,NaN,NaN,NaN,NaN
Lipoamide,HMDB00962,2.935,0,qt,NA,0.2754,0,NC(=O)CCCCC1CCSS1,InChIKey=FCCDDURTIIUXBY-UHFFFAOYSA-N,1.87,-4.7,NaN,NaN,NaN,NaN,NaN,NaN,NaN,NaN,NaN,NaN,NaN,NaN
N-Methylhydantoin,HMDB03646,2.935,3,s,NA,1,0,CN1CC(=O)NC1=O,InChIKey=RHYBFKMFHLPQPH-UHFFFAOYSA-N,14.58,-3,NaN,NaN,NaN,NaN,NaN,NaN,NaN,NaN,NaN,NaN,NaN,NaN
S-Adenosylhomocysteine,HMDB00939,2.935,1,dd,13.73 6.08,0.2019,0,N[C@@H](CCSC[C@H]1O[C@H]([C@H](O)[C@@H]1O)N1C=NC2=C(N)N=CN=C12)C(O)=O,InChIKey=ZJUKTBDSGOFHSH-WFMPWKQPSA-N,9.43,1.41,NaN,NaN,NaN,NaN,0.01,NaN,NaN,NaN,NaN,NaN,NaN,NaN
5-Methoxytryptophol,HMDB01896,2.945,2,t,7.26,0.2074,0,COC1=CC=C2NC=C(CCO)C2=C1,InChIKey=QLWKTGDEPLRFAT-UHFFFAOYSA-N,16.44,-0.18,0.00015,NaN,NaN,NaN,NaN,NaN,NaN,NaN,NaN,NaN,NaN,NaN
3-Methyl-2-oxovaleric acid,HMDB00491,2.945,1,m,NA,0.1834,-1,CCC(C)C(=O)C(O)=O,InChIKey=JVQYSWDUAOAHFM-UHFFFAOYSA-N,1.86,-6.7,20.35,0.3,NaN,NaN,2,NaN,NaN,NaN,NaN,NaN,NaN,NaN
3-Hexenedioic acid,HMDB00393,2.952,4,m,NA,1,-2,OC(=O)C\C=C\CC(O)=O,InChIKey=YHGNXQAFNHCBTK-OWOJBTEDSA-N,4.38,-2.8,NA,NA,NA,NA,NA,NA,NA,NA,NA,NA,NA,NA
3-Methoxytyramine,HMDB00022,2.955,1,t,7.28,0.0624,1,COC1=C(O)C=CC(CCN)=C1,InChIKey=DIVQKHQLANKJQO-UHFFFAOYSA-N,1.08,-3.6,0.0025,0.6,NaN,NaN,NaN,NaN,NaN,NaN,NaN,NaN,NaN,NaN
Corticosterone,HMDB01547,2.955,2,m,NA,0.0621,0,[H][C@@]12CC[C@H](C(=O)CO)[C@@]1(C)C[C@H](O)[C@@]1([H])[C@@]2([H])CCC2=CC(=O)CC[C@]12C,InChIKey=OMFXVFTZEKFJBZ-HJTSIMOOSA-N,2.79,-0.13,0.027,NaN,NaN,NaN,NaN,NaN,NaN,NaN,NaN,NaN,NaN,NaN
L-Asparagine,HMDB00168,2.955,5,m,NA,1,0,N[C@@H](CC(N)=O)C(O)=O,InChIKey=DCXYFEDJOCDNAF-REOHCLBHSA-N,6.97,-5,47.825,9.715166667,NaN,NaN,5.505,NaN,NaN,NaN,NaN,NaN,NaN,NaN
Homocarnosine,HMDB00745,2.955,2,m,NA,0.1107,0,NCCCC(=O)N[C@@H](CC1=CNC=N1)C(O)=O,InChIKey=CCLQKVKJOGVQLU-QMMMGPOBSA-N,-1.3,-1.2,NaN,NaN,NaN,NaN,NaN,NaN,NaN,NaN,NaN,NaN,NaN,NaN
Loperamide,HMDB04999,2.955,3,s,NA,0.8534,1,CN(C)C(=O)C(CCN1CCC(O)(CC1)C1=CC=C(Cl)C=C1)(C1=CC=CC=C1)C1=CC=CC=C1,InChIKey=RDOIQAHITMMDAJ-UHFFFAOYSA-N,1.87,10,NaN,NaN,NaN,NaN,NaN,NaN,NaN,NaN,NaN,NaN,NaN,NaN
Melatonin,HMDB01389,2.955,3,t,6.75,0.2881,0,COC1=CC2=C(NC=C2CCNC(C)=O)C=C1,InChIKey=DRLFMBDRBRZALE-UHFFFAOYSA-N,4.12,-7.2,NaN,NaN,NaN,NaN,NaN,NaN,NaN,NaN,NaN,NaN,NaN,NaN
6-Methyladenine,HMDB02099,2.965,3,br. s.,NA,0.0655,0,CNC1=NC=NC2=C1NC=N2,InChIKey=CKOMXBHMKXXTNW-UHFFFAOYSA-N,4.33,-3.6,NA,NA,NA,NA,NA,NA,NA,NA,NA,NA,NA,NA
5'-Methylthioadenosine,HMDB01173,2.965,23,m,NA,0.1247,0,CSC[C@H]1O[C@H]([C@H](O)[C@@H]1O)N1C=NC2=C1N=CN=C2N,InChIKey=WUUGFSXJNOTRMR-IOSLPCCCSA-N,10.19,-3,NaN,NaN,NaN,NaN,NaN,NaN,NaN,NaN,NaN,NaN,NaN,NaN
Cysteamine,HMDB02991,2.965,1,t,6.45,1,1,NCCS,InChIKey=UFULAYFCSOUIOV-UHFFFAOYSA-N,0.89,-1.3,NaN,NaN,NaN,NaN,NaN,NaN,NaN,NaN,NaN,NaN,NaN,NaN
Tetrahydrocortisone,HMDB00903,2.965,1,d,NA,0.0027,0,[H][C@@]12CC[C@](O)(C(=O)CO)[C@@]1(C)CC(=O)[C@@]1([H])[C@@]2([H])CC[C@@]2([H])C[C@@H](O)CC[C@]12C,InChIKey=SYGWGHVTLUBCEM-SDYDLROXSA-N,15.56,10.9,NaN,0.51,NaN,NaN,NaN,NaN,NaN,NaN,NaN,NaN,NaN,NaN
3.5-Diiodo-L-tyrosine,HMDB03474,2.975,1,dd,14.36 4.46,0.1097,0,N[C@@H](CC1=CC(I)=C(O)C(I)=C1)C(O)=O,InChIKey=NYPYHUZRZVSYKL-ZETCQYMHSA-N,14.58,-3,0.0036,4.90E-05,NaN,NaN,NaN,NaN,NaN,NaN,NaN,NaN,NaN,NaN
Gamma-Glutamylcysteine,HMDB01049,2.975,6,m,NA,1,-1,N[C@@H](CCC(=O)N[C@@H](CS)C(O)=O)C(O)=O,InChIKey=RITKHVBHSGLULN-WHFBIAKZSA-N,1.78,-3.6,25,NaN,NaN,NaN,NaN,NaN,NaN,NaN,NaN,NaN,NaN,NaN
Glucosamine 6-sulfate,HMDB00592,2.975,1,dd,10.54 8.45,0.1151,0,N[C@H]1[C@H](O)O[C@H](COS(O)(=O)=O)[C@@H](O)[C@@H]1O,InChIKey=MTDHILKWIRSIHB-QZABAPFNSA-N,3.2,4.54,NA,NA,NA,NA,NA,NA,NA,NA,NA,NA,NA,NA
3.5-Diiodothyronine,HMDB00582,2.985,1,dd,NA,0.002,0,NC(CC1=CC(I)=C(OC2=CC=C(O)C=C2)C(I)=C1)C(O)=O,InChIKey=ZHSOTLOTTDYIIK-UHFFFAOYSA-N,12.59,-1.1,1.60E-05,1.80E-05,NaN,NaN,NaN,NaN,NaN,NaN,NaN,NaN,NaN,NaN
Isocitric acid,HMDB00193,2.985,2,m,NA,0.6356,-3,OC(C(CC(O)=O)C(O)=O)C(O)=O,InChIKey=ODBLHEXUDAPZAU-UHFFFAOYSA-N,1.15,6.13,6,26.73,NaN,NaN,NaN,NaN,NaN,NaN,NaN,NaN,NaN,NaN
Glutathione,HMDB00125,2.985,4,dd,14.23 9.47,0.1964,-1,N[C@@H](CCC(=O)N[C@@H](CS)C(=O)NCC(O)=O)C(O)=O,InChIKey=RWSXRVCMGQZWBV-WDSKDSINSA-N,1.87,-4.7,800.5,0.065,NaN,4.41,NaN,NaN,NaN,NaN,NaN,NaN,NaN,NaN
4.5-Dihydroorotic acid,HMDB00528,2.985,1,dd,17.07 6.73,0.3695,-1,OC(=O)C1CC(=O)NC(=O)N1,InChIKey=UFIVEPVSAGBUSI-UHFFFAOYSA-N,1.86,-6.7,NA,NA,NA,NA,NA,NA,NA,NA,NA,NA,NA,NA
L-Dopa,HMDB00181,2.995,2,dd,14.64 7.87,0.3872,0,N[C@@H](CC1=CC(O)=C(O)C=C1)C(O)=O,InChIKey=WTDRDQBEARUVNC-LURJTMIESA-N,0.76,-3.6,0.00723,0.0136,NaN,NaN,NaN,NaN,NaN,NaN,NaN,NaN,NaN,NaN
L-Dihydroorotic acid,HMDB03349,2.995,1,dd,17.06 6.82,0.3763,-1,OC(=O)[C@@H]1CC(=O)NC(=O)N1,InChIKey=UFIVEPVSAGBUSI-REOHCLBHSA-N,14.58,-3,NA,NA,NA,NA,NA,NA,NA,NA,NA,NA,NA,NA
3.4-Dihydroxyhydrocinnamic acid,HMDB00423,2.995,1,dd,14.65 7.86,0.3143,-1,OC(=O)CCC1=CC=C(O)C(O)=C1,InChIKey=DZAUWHJDUNRCTF-UHFFFAOYSA-N,8.88,5.16,NaN,0.27,NaN,NaN,NaN,NaN,NaN,NaN,NaN,NaN,NaN,NaN
DL-Dopa,HMDB00609,2.995,1,dd,14.69 7.87,0.3187,0,NC(CC1=CC=C(O)C(O)=C1)C(O)=O,InChIKey=WTDRDQBEARUVNC-UHFFFAOYSA-N,4.26,10.29,NaN,NaN,NaN,NaN,NaN,NaN,NaN,NaN,NaN,NaN,NaN,NaN
Epi-coprostanol,HMDB01569,2.995,1,m,NA,0.0444,0,[H][C@@]1(CC[C@@]2([H])[C@]3([H])CC[C@@]4([H])C[C@H](O)CC[C@]4(C)[C@@]3([H])CC[C@]12C)[C@H](C)CCCC(C)C,InChIKey=QYIXCDOBOSTCEI-FBVYSKEZSA-N,1.36,-1.4,NaN,NaN,NaN,NaN,NaN,NaN,NaN,NaN,NaN,NaN,NaN,NaN
Oleanolic acid,HMDB02364,2.995,1,m,NA,0.0371,-1,[H][C@@]12CC(C)(C)CC[C@@]1(CC[C@]1(C)C2=CC[C@]2([H])[C@@]3(C)CC[C@H](O)C(C)(C)[C@]3([H])CC[C@@]12C)C(O)=O,InChIKey=MIJYXULNPSFWEK-GTOFXWBISA-N,3.81,10,NaN,NaN,NaN,NaN,NaN,NaN,NaN,NaN,NaN,NaN,NaN,NaN
Phenylpropionylglycine,HMDB00860,2.995,14,t,7.73,0.4504,-1,OC(=O)CNC(=O)CCC1=CC=CC=C1,InChIKey=YEIQSAXUPKPPBN-UHFFFAOYSA-N,12.42,5.3,NaN,NaN,NaN,NaN,NaN,NaN,NaN,NaN,NaN,NaN,NaN,NaN
Pipecolic acid,HMDB00070,3.005,1,td,12.40 3.11,0.6882,0,OC(=O)C1CCCCN1,InChIKey=HXEACLLIILLPRG-UHFFFAOYSA-N,2.8,-3.6,1.83,0.114,NaN,NaN,0.403,NaN,NaN,NaN,NaN,NaN,NaN,NaN
Muramic acid,HMDB03254,3.005,1,dd,10.29 8.47,0.1146,0,C[C@@H](O[C@H]1[C@@H](N)[C@H](O)O[C@H](CO)[C@H]1O)C(O)=O,InChIKey=MSFSPUZXLOGKHJ-LEISLEKSSA-N,14.58,-3,NA,NA,NA,NA,NA,NA,NA,NA,NA,NA,NA,NA
Aminocaproic acid,HMDB01901,3.005,2,t,7.57,0.3184,0,NCCCCCC(O)=O,InChIKey=SLXKOJJOQWFEFD-UHFFFAOYSA-N,0.83,2.06,NaN,NaN,NaN,NaN,NaN,NaN,NaN,NaN,NaN,NaN,NaN,NaN
L-Pipecolic acid,HMDB00716,3.005,1,td,12.48 3.22,0.3037,0,OC(=O)[C@@H]1CCCCN1,InChIKey=HXEACLLIILLPRG-YFKPBYRVSA-N,10.87,-4.9,NaN,NaN,NaN,NaN,NaN,NaN,NaN,NaN,NaN,NaN,NaN,NaN
N-Alpha-acetyllysine,HMDB00446,3.005,9,t,7.55,0.2772,0,CC(=O)NC(CCCCN)C(O)=O,InChIKey=VEYYWZRYIYDQJM-UHFFFAOYSA-N,13.85,-0.16,NaN,NaN,NaN,NaN,NaN,NaN,NaN,NaN,NaN,NaN,NaN,NaN
Verapamil,HMDB01850,3.005,1,td,NA,0.0307,1,COC1=C(OC)C=C(CCN(C)CCCC(C#N)(C(C)C)C2=CC(OC)=C(OC)C=C2)C=C1,InChIKey=SGTNSNPWRIOYBX-UHFFFAOYSA-N,12.45,-0.16,NaN,NaN,NaN,NaN,NaN,NaN,NaN,NaN,NaN,NaN,NaN,NaN
Oxoglutaric acid,HMDB00208,3.011,6,t,6.84,0.9996,-2,OC(=O)CCC(=O)C(O)=O,InChIKey=KPGXRSRHYNQIFN-UHFFFAOYSA-N,11.3,-3.7,7.95,NA,NaN,NaN,5.3,NaN,NaN,NaN,NaN,NaN,NaN,NaN
Iodotyrosine,HMDB00021,3.015,1,dd,14.72 7.88,0.3401,0,N[C@@H](CC1=CC=C(O)C(I)=C1)C(O)=O,InChIKey=UQTZMGFTRHFAAM-ZETCQYMHSA-N,18.27,-1.4,0.00069,NaN,NaN,NaN,NaN,NaN,NaN,NaN,NaN,NaN,NaN,NaN
Gamma-Aminobutyric acid,HMDB00112,3.015,2,t,7.58,0.718,0,NCCCC(O)=O,InChIKey=BTCSSZJGUNDROE-UHFFFAOYSA-N,2.79,-3.6,0.11,NA,NaN,NA,0.22075,NaN,NaN,NaN,NaN,NaN,NaN,NaN
Biocytin,HMDB03134,3.015,4,dd,13.06 4.96,0.4161,0,[H][C@]12CS[C@@H](CCCCC(=O)NCCCC[C@H](N)C(O)=O)[C@@]1([H])NC(=O)N2,InChIKey=BAQMYDQNMFBZNA-MNXVOIDGSA-N,14.58,-3,NA,NA,NA,NA,NA,NA,NA,NA,NA,NA,NA,NA
Imipramine,HMDB01848,3.015,8,m,NA,0.0857,1,CN(C)CCCN1C2=CC=CC=C2CCC2=CC=CC=C12,InChIKey=BCGWQEUPMDMJNV-UHFFFAOYSA-N,2.98,9.73,NA,NA,NA,NA,NA,NA,NA,NA,NA,NA,NA,NA
Uvaol,HMDB02391,3.015,1,m,NA,0.0598,0,[H][C@@]12[C@@H](C)[C@H](C)CC[C@]1(CO)CC[C@]1(C)C2=CC[C@]2([H])[C@@]3(C)CC[C@H](O)C(C)(C)[C@]3([H])CC[C@@]12C,InChIKey=XUARCIYIVXVTAE-ZAPOICBTSA-N,13.56,-6.6,NA,NA,NA,NA,NA,NA,NA,NA,NA,NA,NA,NA
5-Aminopentanoic acid,HMDB03355,3.015,2,t,7.09,0.81,0,NCCCCC(O)=O,InChIKey=JJMDCOVWQOJGCB-UHFFFAOYSA-N,14.58,-3,NaN,1.066666667,NaN,470.38,NaN,NaN,NaN,NaN,NaN,NaN,NaN,NaN
Alpha-Aspartyl-lysine,HMDB04987,3.015,13,t,7.48,1,0,NCCCC[C@H](NC(=O)[C@@H](N)CC(O)=O)C(O)=O,InChIKey=OAMLVOVXNKILLQ-BQBZGAKWSA-N,1.87,10,NaN,NaN,NaN,NaN,NaN,NaN,NaN,NaN,NaN,NaN,NaN,NaN
Gabapentin,HMDB05015,3.015,2,s,NA,0.9585,0,NCC1(CC(O)=O)CCCCC1,InChIKey=UGJMXCAKCUNAIE-UHFFFAOYSA-N,1.87,10,NaN,NaN,NaN,NaN,NaN,NaN,NaN,NaN,NaN,NaN,NaN,NaN
Homocarnosine,HMDB00745,3.015,8,dd,15.14 8.93,0.107,0,NCCCC(=O)N[C@@H](CC1=CNC=N1)C(O)=O,InChIKey=CCLQKVKJOGVQLU-QMMMGPOBSA-N,-1.3,-1.2,NaN,NaN,NaN,NaN,NaN,NaN,NaN,NaN,NaN,NaN,NaN,NaN
Lipoamide,HMDB00962,3.015,1,m,NA,0.1293,0,NC(=O)CCCCC1CCSS1,InChIKey=FCCDDURTIIUXBY-UHFFFAOYSA-N,1.87,-4.7,NaN,NaN,NaN,NaN,NaN,NaN,NaN,NaN,NaN,NaN,NaN,NaN
N-Acetylputrescine,HMDB02064,3.015,1,t,NA,0.2982,1,CC(=O)NCCCCN,InChIKey=KLZGKIDSEJWEDW-UHFFFAOYSA-N,17.45,-9.7,NaN,1.19,NaN,NaN,NaN,NaN,NaN,NaN,NaN,NaN,NaN,NaN
Alpha-ketoisovaleric acid,HMDB00019,3.025,1,dq,7.05,0.0746,-1,CC(C)C(=O)C(O)=O,InChIKey=QHKABHOOEWYVLI-UHFFFAOYSA-N,1.86,-6.7,11,NaN,NaN,NaN,7.1,NaN,NaN,NaN,NaN,NaN,NaN,NaN
Azythromycin,HMDB01916,3.025,1,m,NA,0.02,2,CC[C@@H]1OC(=O)[C@H](C)[C@@H](O[C@@H]2C[C@](C)(OC)[C@H](O)[C@@H](C)O2)[C@@H](C)[C@H](O[C@H]2O[C@@H](C)C[C@H]([C@@H]2O)N(C)C)[C@@](C)(O)C[C@H](C)CN(C)[C@@H](C)[C@@H](O)[C@]1(C)O,InChIKey=MQTOSJVFKKJCRP-HHZDEWPHSA-N,3.84,1.99,NA,NA,NA,NA,NA,NA,NA,NA,NA,NA,NA,NA
3-Chlorotyrosine,HMDB01885,3.025,1,dd,14.80 7.62,0.292,0,NC(CC1=CC(Cl)=C(O)C=C1)C(O)=O,InChIKey=ACWBBAGYTKWBCD-UHFFFAOYSA-N,18.22,-0.88,NaN,7.00E-04,NaN,NaN,NaN,NaN,NaN,NaN,NaN,NaN,NaN,NaN
D-Lysine,HMDB03405,3.025,2,t,7.57,1,1,NCCCC[C@@H](N)C(O)=O,InChIKey=KDXKERNSBIXSRK-RXMQYKEDSA-N,14.58,-3,NaN,NaN,NaN,NaN,NaN,NaN,NaN,NaN,NaN,NaN,NaN,NaN
Glycyrrhetinic acid,HMDB11628,3.025,1,m,NA,0.0551,-1,CC1(C)[C@@H](O)CC[C@@]2(C)C1CC[C@]1(C)C2C(=O)C=C2C3C[C@](C)(CC[C@]3(C)CC[C@@]12C)C(O)=O,InChIKey=MPDGHEJMBKOTSU-WFJWTYAKSA-N,1.86,-3,NaN,NaN,NaN,NaN,NaN,NaN,NaN,NaN,NaN,NaN,NaN,NaN
N.N-Dimethylformamide,HMDB01888,3.025,3,d,0.5,1,0,CN(C)C=O,InChIKey=ZMXDDKWLCZADIW-UHFFFAOYSA-N,9.48,-3.5,NaN,0.17,NaN,NaN,NaN,NaN,NaN,NaN,NaN,NaN,NaN,NaN
Vanillactic acid,HMDB00913,3.025,1,dd,NA,0.0507,-1,COC1=CC(CC(O)C(O)=O)=CC=C1O,InChIKey=SVYIZYRTOYHQRE-UHFFFAOYSA-N,4.95,4.97,NaN,NaN,NaN,NaN,NaN,NaN,NaN,NaN,NaN,NaN,NaN,NaN
Creatine,HMDB00064,3.035,58,s,NA,1,0,CN(CC(O)=O)C(N)=N,InChIKey=CVSVTCORWBXHQV-UHFFFAOYSA-N,11.31,9.66,36.7,75.33333333,NaN,30.12,44,NaN,NaN,NaN,NaN,NaN,NaN,NaN
L-Lysine,HMDB00182,3.035,22,t,NA,1,1,NCCCC[C@H](N)C(O)=O,InChIKey=KDXKERNSBIXSRK-YFKPBYRVSA-N,0.3,-3.7,266.8666667,7.325,NaN,NA,22.8,NaN,NaN,NaN,NaN,NaN,NaN,NaN
Glucosamine 6-phosphate,HMDB01254,3.035,5,dd,10.41 8.49,0.3039,-1,N[C@H]1[C@@H](O)O[C@H](COP(O)(O)=O)[C@@H](O)[C@@H]1O,InChIKey=XHMJOUIAFHJHBW-UKFBFLRUSA-N,7.82,9.73,NA,NA,NA,NA,NA,NA,NA,NA,NA,NA,NA,NA
Hydroxycobalamin,HMDB02308,3.035,1,m,NA,NA,2,[Co++].O.OC[C@H]1O[C@@]([H])([C@H](O)[C@]1([H])OP(=O)([O-])O[C@H](C)CNC(=O)CC[C@]1(C)[C@@H](CC(=O)N)[C@@]2([H])[N-]\C1=C(C)/C1=N/C(=C\C3=N\C(=C(C)/C4=N[C@]2(C)[C@@](C)(CC(=O)N)[C@@H]4CCC(=O)N)\[C@@](C)(CC(=O)N)[C@@H]3CCC(=O)N)/C(C)(C)[C@@H]1CCC(=O)N)N1C=NC2=C1C=C(C)C(C)=C2,InChIKey=DQOCFCZRZOAIBN-WZHZPDAFSA-L,2.45,-1.9,NA,NA,NA,NA,NA,NA,NA,NA,NA,NA,NA,NA
Lisinopril,HMDB01938,3.035,1,t,NA,0.4265,0,NCCCC[C@H](N[C@@H](CCC1=CC=CC=C1)C(O)=O)C(=O)N1CCC[C@H]1C(O)=O,InChIKey=RLAWWYSOJDYHDC-BZSNNMDCSA-N,2.04,-3,NA,NA,NA,NA,NA,NA,NA,NA,NA,NA,NA,NA
Cysteineglutathione disulfide,HMDB00656,3.035,7,dd,14.34 9.54,0.2812,-1,N[C@@H](CCC(=O)N[C@@H](CSSCC(N)C(O)=O)C(=O)NCC(O)=O)C(O)=O,InChIKey=BNRXZEPOHPEEAS-PPSBICQBSA-N,5.04,-1.4,NaN,NaN,NaN,NaN,NaN,NaN,NaN,NaN,NaN,NaN,NaN,NaN
D-Cysteine,HMDB03417,3.035,2,dd,NA,0.4703,0,N[C@H](CS)C(O)=O,InChIKey=XUJNEKJLAYXESH-UWTATZPHSA-N,14.58,-3,NaN,NaN,NaN,NaN,NaN,NaN,NaN,NaN,NaN,NaN,NaN,NaN
Methionine sulfoxide,HMDB02005,3.035,1,m,NA,0.0768,0,CS(=O)CCC(N)C(O)=O,InChIKey=QEFRNWWLZKMPFJ-UHFFFAOYSA-N,0.83,9.31,NaN,NA,NaN,3.28,NaN,NaN,NaN,NaN,NaN,NaN,NaN,NaN
Ethylmalonic acid,HMDB00622,3.038,1,t,7.58,0.3125,-2,CCC(C(O)=O)C(O)=O,InChIKey=UKFXDFUAPNAMPJ-UHFFFAOYSA-N,4.6,-7.1,NaN,1.886666667,NaN,NaN,NaN,NaN,NaN,NaN,NaN,NaN,NaN,NaN
L-Tyrosine,HMDB00158,3.039,0,dd,NA,0.0063,0,N[C@@H](CC1=CC=C(O)C=C1)C(O)=O,InChIKey=OUYCCCASQSFEME-QMMMGPOBSA-N,4.22,-3.3,99.625,10.466,NaN,NA,9.125,NaN,NaN,NaN,NaN,NaN,NaN,NaN
Histamine,HMDB00870,3.045,2,m,NA,0.6526,1,NCCC1=CNC=N1,InChIKey=NTYJJOPFIAHURM-UHFFFAOYSA-N,0.83,-2.9,0.00067,10.411,NaN,3.44,0.2335,NaN,NaN,NaN,NaN,NaN,NaN,NaN
Carnosine,HMDB00033,3.045,1,dd,15.22,0.1446,0,NCCC(=O)N[C@@H](CC1=CN=CN1)C(O)=O,InChIKey=CQOVPNPJLQNMDC-ZETCQYMHSA-N,1.86,8.86,6.54,1.84,NaN,NaN,NaN,NaN,NaN,NaN,NaN,NaN,NaN,NaN
Carnosine,HMDB00033,3.045,1,dd,8.62,0.1446,0,NCCC(=O)N[C@@H](CC1=CN=CN1)C(O)=O,InChIKey=CQOVPNPJLQNMDC-ZETCQYMHSA-N,1.86,8.86,6.54,1.84,NaN,NaN,NaN,NaN,NaN,NaN,NaN,NaN,NaN,NaN
Creatinine,HMDB00562,3.045,3,s,NA,1,0,CN1CC(=O)NC1=N,InChIKey=DDRJAANPRJIHGJ-UHFFFAOYSA-N,3.53,-3.8,81.10666667,10608.91,NaN,NA,57.71666667,69.65,NaN,NaN,NaN,NaN,NaN,NaN
3-Indolepropionic acid,HMDB02302,3.045,19,t,7.74,0.8797,-1,OC(=O)CCC1=CNC2=CC=CC=C12,InChIKey=GOLXRNDWAUTYKT-UHFFFAOYSA-N,2.45,-2.9,NaN,NaN,NaN,NaN,NaN,NaN,NaN,NaN,NaN,NaN,NaN,NaN
o-Tyrosine,HMDB06050,3.045,1,dd,14.55 8.01,0.1322,0,NC(CC1=CC=CC=C1O)C(O)=O,InChIKey=WRFPVMFCRNYQNR-UHFFFAOYSA-N,1.08,-3.6,NaN,NaN,NaN,NaN,NaN,NaN,NaN,NaN,NaN,NaN,NaN,NaN
Phosphocreatine,HMDB01511,3.045,12,s,NA,1,-2,CN(CC(O)=O)C(=N)NP(O)(O)=O,InChIKey=DRBBFCLWYRJSJZ-UHFFFAOYSA-N,-3.2,-5.9,NaN,NaN,NaN,NaN,NaN,NaN,NaN,NaN,NaN,NaN,NaN,NaN
1.1-Dimethylbiguanide,HMDB01921,3.048,6,s,NA,1,2,CN(C)C(=N)NC(N)=N,InChIKey=XZWYZXLIPXDOLR-UHFFFAOYSA-N,6.05,2.84,NaN,NaN,NaN,NaN,NaN,NaN,NaN,NaN,NaN,NaN,NaN,NaN
3-Methoxytyrosine,HMDB01434,3.055,9,dd,14.56 7.83,0.053,0,COC1=CC(CC(N)C(O)=O)=CC=C1O,InChIKey=PFDUUKDQEHURQC-UHFFFAOYSA-N,1.83,-3.6,0.089,0.06,NaN,NaN,NaN,NaN,NaN,NaN,NaN,NaN,NaN,NaN
Putrescine,HMDB01414,3.055,4,t,7.29,0.8175,2,NCCCCN,InChIKey=KIDHWZJUCRJVML-UHFFFAOYSA-N,1.8,-7,0.132,0.5645,NaN,255.68,0.23,NaN,NaN,NaN,NaN,NaN,NaN,NaN
Hydroxyphenyllactic acid,HMDB00755,3.055,1,dd,14.18 4.44,0.3406,-1,OC(CC1=CC=C(O)C=C1)C(O)=O,InChIKey=JVGVDSSUAVXRDY-UHFFFAOYSA-N,-1.1,-3,0.64,1.1,NaN,25.1,NaN,NaN,NaN,NaN,NaN,NaN,NaN,NaN
Anserine,HMDB00194,3.055,1,dd,15.79 8.97,0.0706,0,CN1C=NC=C1C[C@H](NC(=O)CCN)C(O)=O,InChIKey=MYYIAHXIVFADCU-QMMMGPOBSA-N,0.9,-3.6,41,NA,NaN,NaN,NaN,NaN,NaN,NaN,NaN,NaN,NaN,NaN
Ondansetron,HMDB05035,3.055,1,ddd,NA,0.0085,1,CN1C2=C(C3=CC=CC=C13)C(=O)C(CN1C=CN=C1C)CC2,InChIKey=FELGMEQIXOGIFQ-UHFFFAOYSA-N,1.87,10,NA,NA,NA,NA,NA,NA,NA,NA,NA,NA,NA,NA
Cysteamine,HMDB02991,3.055,2,t,6.73,0.9722,1,NCCS,InChIKey=UFULAYFCSOUIOV-UHFFFAOYSA-N,0.89,-1.3,NaN,NaN,NaN,NaN,NaN,NaN,NaN,NaN,NaN,NaN,NaN,NaN
Ornithine,HMDB00214,3.061,3,t,NA,1,1,NCCC[C@H](N)C(O)=O,InChIKey=AHLPHDHHMVZTML-BYPYZUCNSA-N,1.87,10,81.175,1.39588,NaN,NA,4.285,NaN,NaN,NaN,NaN,NaN,NaN,NaN
Aspartame,HMDB01894,3.065,1,m,NA,0.0717,0,COC(=O)[C@H](CC1=CC=CC=C1)NC(=O)[C@@H](N)CC(O)=O,InChIKey=IAOZJIPTCAWIRG-QWRGUYRKSA-N,13.45,-2.7,NaN,NaN,NaN,NaN,NaN,NaN,NaN,NaN,NaN,NaN,NaN,NaN
Saccharopine,HMDB00279,3.065,2,td,NA,0.2065,-1,N[C@@H](CCCCN[C@@H](CCC(O)=O)C(O)=O)C(O)=O,InChIKey=ZDGJAHTZVHVLOT-YUMQZZPRSA-N,4.48,-2.8,NaN,NaN,NaN,NaN,NaN,NaN,NaN,NaN,NaN,NaN,NaN,NaN
Indolelactic acid,HMDB00671,3.075,1,dd,14.88 7.65,0.491,-1,OC(CC1=CNC2=C1C=CC=C2)C(O)=O,InChIKey=XGILAAMKEQUXLS-UHFFFAOYSA-N,7.6,5,2.8,0.46,NaN,NaN,NaN,NaN,NaN,NaN,NaN,NaN,NaN,NaN
L-Cysteine,HMDB00574,3.075,56,m,NA,1,0,N[C@@H](CS)C(O)=O,InChIKey=XUJNEKJLAYXESH-REOHCLBHSA-N,3.77,-0.38,74.465,17.20733333,NaN,1.3,NaN,NaN,NaN,NaN,NaN,NaN,NaN,NaN
L-Homocysteic acid,HMDB02205,3.075,5,m,NA,0.5417,-1,N[C@@H](CCS(O)(=O)=O)C(O)=O,InChIKey=VBOQYPQEPHKASR-VKHMYHEASA-N,3.86,-3.6,NA,NA,NA,NA,NA,NA,NA,NA,NA,NA,NA,NA
Tryptophanol,HMDB03447,3.075,1,dt,NA,0.2261,0,OCCC1=CNC2=CC=CC=C12,InChIKey=MBBOMCVGYCRMEA-UHFFFAOYSA-N,14.58,-3,NA,NA,NA,NA,NA,NA,NA,NA,NA,NA,NA,NA
Taurodeoxycholic acid,HMDB00896,3.075,2,t,7.03,0.7825,-1,[H][C@@]1(CC[C@@]2([H])[C@]3([H])CC[C@]4([H])C[C@H](O)CC[C@]4(C)[C@@]3([H])C[C@H](O)[C@]12C)[C@H](C)CCC(=O)NCCS(O)(=O)=O,InChIKey=AWDRATDZQPNJFN-VAYUFCLWSA-N,1.86,-6.7,NaN,NaN,NaN,NaN,NaN,NaN,NaN,NaN,NaN,NaN,NaN,NaN
3-Nitrotyrosine,HMDB01904,3.085,1,dd,NA,0.4152,-1,N[C@@H](CC1=CC(=C(O)C=C1)[N+]([O-])=O)C(O)=O,InChIKey=FBTSQILOGYXGMD-LURJTMIESA-N,3.73,-1.4,0.85,NaN,NaN,NaN,3.36,NaN,NaN,NaN,NaN,NaN,NaN,NaN
1-Methylhistidine,HMDB00001,3.085,2,dd,NA,0.1135,0,CN1C=NC(C[C@H](N)C(O)=O)=C1,InChIKey=BRMWTNUJHUMWMS-LURJTMIESA-N,1.86,-3,13.1,23.87,NaN,26.34,4,NaN,NaN,NaN,NaN,NaN,NaN,NaN
3-Methylhistamine,HMDB01861,3.085,2,t,7.36,0.3233,2,CN1C=NC=C1CCN,InChIKey=CPAGZVLINCPJEH-UHFFFAOYSA-N,3.24,4.95,NaN,NaN,NaN,NaN,NaN,NaN,NaN,NaN,NaN,NaN,NaN,NaN
4-(Methylnitrosamino)-1-(3-pyridyl)-1-butanone,HMDB11603,3.085,2,t,NA,0.0675,0,CN(CCCC(=O)C1=CC=CN=C1)N=O,InChIKey=FLAQQSHRLBFIEZ-UHFFFAOYSA-N,1.86,-3,NaN,NaN,NaN,NaN,NaN,NaN,NaN,NaN,NaN,NaN,NaN,NaN
Brompheniramine,HMDB01941,3.085,8,t,8.35,0.0954,1,CN(C)CCC(C1=CC=C(Br)C=C1)C1=CC=CC=N1,InChIKey=ZDIGNSYAACHWNL-UHFFFAOYSA-N,2.58,9.64,NaN,NaN,NaN,NaN,NaN,NaN,NaN,NaN,NaN,NaN,NaN,NaN
Glutaconic acid,HMDB00620,3.088,2,dd,7.33 1.51,1,-2,OC(=O)C\C=C\C(O)=O,InChIKey=XVOUMQNXTGKGMA-OWOJBTEDSA-N,3.71,-2.8,NaN,NaN,NaN,NaN,NaN,NaN,NaN,NaN,NaN,NaN,NaN,NaN
L-Thyronine,HMDB00667,3.095,1,d,4.35,0.0538,0,N[C@@H](CC1=CC=C(OC2=CC=C(O)C=C2)C=C1)C(O)=O,InChIKey=KKCIOUWDFWQUBT-AWEZNQCLSA-N,3.41,9.57,0.29,0.0024,NaN,NaN,NaN,NaN,NaN,NaN,NaN,NaN,NaN,NaN
Chlorpheniramine,HMDB01944,3.095,2,m,NA,0.0833,1,CN(C)CCC(C1=CC=C(Cl)C=C1)C1=CC=CC=N1,InChIKey=SOYKEARSMXGVTM-UHFFFAOYSA-N,1.87,10,NA,NA,NA,NA,NA,NA,NA,NA,NA,NA,NA,NA
Metoprolol,HMDB01932,3.095,1,m,NA,0.0288,1,COCCC1=CC=C(OCC(O)CNC(C)C)C=C1,InChIKey=IUBSYMUCCVWXPE-UHFFFAOYSA-N,0.83,7.85,NaN,NaN,NaN,NaN,NaN,NaN,NaN,NaN,NaN,NaN,NaN,NaN
Naringenin,HMDB02670,3.095,0,dd,NA,0.0213,0,OC1=CC=C(C=C1)[C@@H]1CC(=O)C2=C(O)C=C(O)C=C2O1,InChIKey=FTVWIRXFELQLPI-ZDUSSCGKSA-N,18.2,9.79,NaN,NaN,NaN,NaN,NaN,NaN,NaN,NaN,NaN,NaN,NaN,NaN
Citalopram,HMDB05038,3.105,2,m,NA,0.0118,1,CN(C)CCCC1(OCC2=C1C=CC(=C2)C#N)C1=CC=C(F)C=C1,InChIKey=WSEQXVZVJXJVFP-UHFFFAOYSA-N,1.87,10,NA,NA,NA,NA,NA,NA,NA,NA,NA,NA,NA,NA
D-Cysteine,HMDB03417,3.105,2,dd,NA,0.4181,0,N[C@H](CS)C(O)=O,InChIKey=XUJNEKJLAYXESH-UWTATZPHSA-N,14.58,-3,NaN,NaN,NaN,NaN,NaN,NaN,NaN,NaN,NaN,NaN,NaN,NaN
L-3-Phenyllactic acid,HMDB00748,3.105,1,dd,14.03 4.27,0.325,-1,O[C@H](CC1=CC=CC=C1)C(O)=O,InChIKey=VOXXWSYKYCBWHO-MRVPVSSYSA-N,4.95,-3.8,NaN,NaN,NaN,NaN,NaN,NaN,NaN,NaN,NaN,NaN,NaN,NaN
Phenyllactic acid,HMDB00779,3.105,1,dd,14.03 4.27,0.325,-1,OC(CC1=CC=CC=C1)C(O)=O,InChIKey=VOXXWSYKYCBWHO-UHFFFAOYSA-N,9.34,4.95,NaN,NaN,NaN,3.77,NaN,NaN,NaN,NaN,NaN,NaN,NaN,NaN
Biotin,HMDB00030,3.115,1,m,NA,0.174,-1,[H][C@]12CS[C@@H](CCCCC(O)=O)[C@@]1([H])NC(=O)N2,InChIKey=YBJHBAHKTGYVGT-ZKWXMUAHSA-N,4.36,-3,0.00127,0.036,NaN,0.071,NaN,NaN,NaN,NaN,NaN,NaN,NaN,NaN
L-Aspartyl-L-phenylalanine,HMDB00706,3.115,1,s,NA,0.1402,-1,N[C@@H](CC(O)=O)C(=O)N[C@@H](CC1=CC=CC=C1)C(O)=O,InChIKey=YZQCXOFQZKCETR-UWVGGRQHSA-N,0.63,-3.6,NaN,NaN,NaN,NaN,NaN,NaN,NaN,NaN,NaN,NaN,NaN,NaN
N-Acetyl-L-tyrosine,HMDB00866,3.115,6,dd,14.06 4.83,0.0791,-1,CC(=O)N[C@@H](CC1=CC=C(O)C=C1)C(O)=O,InChIKey=CAHKINHBCWCHCF-JTQLQIEISA-N,4.09,9.9,NaN,NaN,NaN,NaN,NaN,NaN,NaN,NaN,NaN,NaN,NaN,NaN