Metabolite,HMDB Name,Shift (ppm),Hs,Type,J (Hz),Height,Physiological Charge,SMILES,InChlKey,pKa (Strongest Acidic),pKa (Strongest Basic),Blood,Urine,Feces,Saliva,Cerebrospinal Fluid (CSF),Amniotic Fluid,Aqueous Humour,Ascites Fluid,Breast Milk,Lymph,Sweat,Tears
PC(16:0/16:0),HMDB00564,4.275,1,dd,11.94 7.27,0.0105,0,CCCCCCCCCCCCCCCC(=O)OC[C@H](COP([O-])(=O)OCC[N+](C)(C)C)OC(=O)CCCCCCCCCCCCCCC,InChIKey=KILNVBDSWZSGLL-KXQOOQHDSA-N,4.6,-2.9,584.557,NaN,NaN,NaN,NaN,NaN,NaN,NaN,NaN,NaN,NaN,NaN
dGTP,HMDB01440,4.275,1,m,NA,0.2394,-3,NC1=NC2=C(N=CN2[C@H]2C[C@H](O)[C@@H](COP(O)(=O)OP(O)(=O)OP(O)(O)=O)O2)C(=O)N1,InChIKey=HAAZLUGHYHWQIW-KVQBGUIXSA-N,2.23,-0.28,NA,NA,NA,NA,NA,NA,NA,NA,NA,NA,NA,NA
Inosine triphosphate,HMDB00189,4.275,2,m,NA,0.1665,-3,O[C@@H]1[C@@H](COP(O)(=O)OP(O)(=O)OP(O)(O)=O)O[C@H]([C@@H]1O)N1C=NC2=C1N=CN=C2O,InChIKey=HAEJPQIATWHALX-KQYNXXCUSA-N,1.51,-3.7,NA,NA,NA,NA,NA,NA,NA,NA,NA,NA,NA,NA
L-3-Phenyllactic acid,HMDB00748,4.275,1,dd,7.95 4.31,0.3589,-1,O[C@H](CC1=CC=CC=C1)C(O)=O,InChIKey=VOXXWSYKYCBWHO-MRVPVSSYSA-N,4.95,-3.8,NaN,NaN,NaN,NaN,NaN,NaN,NaN,NaN,NaN,NaN,NaN,NaN
Phenyllactic acid,HMDB00779,4.275,1,dd,7.95 4.31,0.3589,-1,OC(CC1=CC=CC=C1)C(O)=O,InChIKey=VOXXWSYKYCBWHO-UHFFFAOYSA-N,9.34,4.95,NaN,NaN,NaN,3.77,NaN,NaN,NaN,NaN,NaN,NaN,NaN,NaN
Uridine 5'-diphosphate,HMDB00295,4.275,1,m,NA,0.2443,-2,O[C@H]1[C@@H](O)[C@@H](O[C@@H]1COP(O)(=O)OP(O)(O)=O)N1C=CC(=O)NC1=O,InChIKey=XCCTYIAWTASOJW-XVFCMESISA-N,5.25,-2.8,NaN,NaN,NaN,NaN,NaN,NaN,NaN,NaN,NaN,NaN,NaN,NaN
Glucosamine 6-sulfate,HMDB00592,4.285,2,d,3.74,0.5535,0,N[C@H]1[C@H](O)O[C@H](COS(O)(=O)=O)[C@@H](O)[C@@H]1O,InChIKey=MTDHILKWIRSIHB-QZABAPFNSA-N,3.2,4.54,NA,NA,NA,NA,NA,NA,NA,NA,NA,NA,NA,NA
Uridine diphosphate-N-acetylglucosamine,HMDB00290,4.294,1,m,NA,0.0425,-2,CC(=O)N[C@@H]1[C@@H](O)[C@H](O)[C@@H](CO)O[C@@H]1OP(O)(=O)OP(O)(=O)OC[C@H]1O[C@H]([C@H](O)[C@@H]1O)N1C=CC(=O)NC1=O,InChIKey=LFTYTUAZOPRMMI-CFRASDGPSA-N,4.67,-0.88,NaN,NaN,NaN,NaN,NaN,NaN,NaN,NaN,NaN,NaN,NaN,NaN
1-Methyladenosine,HMDB03331,4.295,1,m,NA,0.0988,0,CN1C=NC2=C(N=CN2[C@@H]2O[C@H](CO)[C@@H](O)[C@H]2O)C1=N,InChIKey=GFYLSDSUCHVORB-IOSLPCCCSA-N,14.58,-3,0.1,8.716666667,NaN,NaN,NaN,NaN,NaN,NaN,NaN,NaN,NaN,NaN
Nicotinuric acid,HMDB03269,4.295,1,s,NA,1,-1,OC(=O)CNC(=O)C1=CN=CC=C1,InChIKey=ZBSGKPYXQINNGF-UHFFFAOYSA-N,14.58,-3,10,NaN,NaN,NaN,NaN,NaN,NaN,NaN,NaN,NaN,NaN,NaN
3-Phenoxypropionic acid,HMDB02229,4.295,1,m,NA,1,-1,OC(=O)CCOC1=CC=CC=C1,InChIKey=BUSOTUQRURCMCM-UHFFFAOYSA-N,2.84,6.63,NA,NA,NA,NA,NA,NA,NA,NA,NA,NA,NA,NA
TG(16:0/16:0/16:0)[iso],HMDB05356,4.295,2,dd,NA,0.0321,0,CCCCCCCCCCCCCCCC(=O)OCC(COC(=O)CCCCCCCCCCCCCCC)OC(=O)CCCCCCCCCCCCCCC,InChIKey=PVNIQBQSYATKKL-UHFFFAOYSA-N,1.87,10,NA,NA,NA,NA,NA,NA,NA,NA,NA,NA,NA,NA
4-(Methylnitrosamino)-1-(3-pyridyl)-1-butanone,HMDB11603,4.295,2,t,6.79,0.3135,0,CN(CCCC(=O)C1=CC=CN=C1)N=O,InChIKey=FLAQQSHRLBFIEZ-UHFFFAOYSA-N,1.86,-3,NaN,NaN,NaN,NaN,NaN,NaN,NaN,NaN,NaN,NaN,NaN,NaN
Dehydroascorbic acid,HMDB01264,4.295,1,dd,10.34 5.34,0.2264,-1,[H][C@@]1(OC(=O)C(=O)C1=O)[C@H](O)CO,InChIKey=SBJKKFFYIZUCET-DUZGATOHSA-N,11.63,9.37,NaN,NaN,NaN,NaN,NaN,NaN,NaN,NaN,NaN,NaN,NaN,NaN
Galacturonic acid,HMDB02545,4.295,7,dd,3.38 1.35,0.2707,-1,O[C@@H](C=O)[C@@H](O)[C@@H](O)[C@H](O)C(O)=O,InChIKey=IAJILQKETJEXLJ-RSJOWCBRSA-N,14.58,-3,NaN,NaN,NaN,NaN,NaN,NaN,NaN,NaN,NaN,NaN,NaN,NaN
Leucinic acid,HMDB00665,4.295,1,dd,8.85 4.64,0.086,-1,CC(C)CC(O)C(O)=O,InChIKey=LVRFTAZAXQPQHI-UHFFFAOYSA-N,15.54,0.22,NaN,NaN,NaN,NaN,NaN,NaN,NaN,NaN,NaN,NaN,NaN,NaN
Propranolol,HMDB01849,4.295,2,dd,13.92 4.68,0.0806,1,CC(C)NCC(O)COC1=CC=CC2=CC=CC=C12,InChIKey=AQHHHDLHHXJYJD-UHFFFAOYSA-N,3.16,-4.2,NaN,NaN,NaN,NaN,NaN,NaN,NaN,NaN,NaN,NaN,NaN,NaN
Adenosine triphosphate,HMDB00538,4.299,1,m,NA,0.1065,-3,NC1=NC=NC2=C1N=CN2[C@@H]1O[C@H](COP(O)(=O)OP(O)(=O)OP(O)(O)=O)[C@@H](O)[C@H]1O,InChIKey=ZKHQWZAMYRWXGA-KQYNXXCUSA-N,2.83,-0.58,2271,NaN,NaN,0.47,1.85,NaN,NaN,NaN,NaN,NaN,NaN,NaN
Aminopterin,HMDB01833,4.301,1,m,NA,0.0667,-2,NC1=NC2=C(N=C(CNC3=CC=C(C=C3)C(=O)NC(CCC(O)=O)C(O)=O)C=N2)C(N)=N1,InChIKey=TVZGACDUOSZQKY-UHFFFAOYSA-N,9.51,-3.5,NA,NA,NA,NA,NA,NA,NA,NA,NA,NA,NA,NA
Biotin,HMDB00030,4.305,3,t,NA,0.2372,-1,[H][C@]12CS[C@@H](CCCCC(O)=O)[C@@]1([H])NC(=O)N2,InChIKey=YBJHBAHKTGYVGT-ZKWXMUAHSA-N,4.36,-3,0.00127,0.036,NaN,0.071,NaN,NaN,NaN,NaN,NaN,NaN,NaN,NaN
Pseudouridine,HMDB00767,4.305,1,t,5.47,0.3785,0,OC[C@H]1O[C@H]([C@H](O)[C@@H]1O)C1=CNC(=O)NC1=O,InChIKey=PTJWIQPHWPFNBW-GBNDHIKLSA-N,1.08,-3.6,3.18,17.15566667,NaN,NaN,NaN,NaN,NaN,NaN,NaN,NaN,NaN,NaN
L-Malic acid,HMDB00156,4.305,1,dd,10.23 2.98,0.7024,-2,O[C@@H](CC(O)=O)C(O)=O,InChIKey=BJEPYKJPYRNKOW-REOHCLBHSA-N,10.02,4.96,7.6,1.71,NaN,6.45,3,NaN,NaN,NaN,NaN,NaN,NaN,NaN
SM(d18:1/18:0),HMDB01348,4.305,1,m,NA,0.0027,0,CCCCCCCCCCCCCCCCCC(=O)N[C@@]([H])(COP(O)(=O)OCC[N+](C)(C)C)[C@]([H])(O)\C=C\CCCCCCCCCCCCC,InChIKey=LKQLRGMMMAHREN-YJFXYUILSA-O,1.86,-6.7,157.1,NaN,NaN,0.121,NaN,NaN,NaN,NaN,NaN,NaN,NaN,NaN
NADP,HMDB00217,4.305,2,m,NA,0.1697,-3,NC(=O)C1=C[N+](=CC=C1)[C@@H]1O[C@H](CO[P@](O)(=O)O[P@](O)(=O)OC[C@H]2O[C@H]([C@H](OP(O)(O)=O)[C@@H]2O)N2C=NC3=C(N)N=CN=C23)[C@@H](O)[C@H]1O,InChIKey=XJLXINKUBYWONI-NNYOXOHSSA-O,4.48,-2.8,NA,NA,NA,NA,NA,NA,NA,NA,NA,NA,NA,NA
5-Methylcytidine,HMDB00982,4.305,1,t,NA,0.1738,0,CC1=CN([C@@H]2O[C@H](CO)[C@@H](O)[C@H]2O)C(=O)N=C1N,InChIKey=ZAYHVCMSTBRABG-JXOAFFINSA-N,4.13,5.53,NaN,NaN,NaN,NaN,NaN,NaN,NaN,NaN,NaN,NaN,NaN,NaN
Malic acid,HMDB00744,4.305,1,dd,10.12 2.88,0.2494,-2,OC(CC(O)=O)C(O)=O,InChIKey=BJEPYKJPYRNKOW-UHFFFAOYSA-N,1.23,-0.58,NaN,0,NaN,5.12,NaN,NaN,NaN,NaN,NaN,NaN,NaN,NaN
Flavin Mononucleotide,HMDB01520,4.315,2,m,NA,0.0045,-3,CC1=CC2=C(C=C1C)N(C[C@H](O)[C@H](O)[C@H](O)COP(O)(O)=O)C1=NC(=O)NC(=O)C1=N2,InChIKey=FVTCRASFADXXNN-SCRDCRAPSA-N,0.83,-3.6,0.0075,NaN,NaN,NaN,NaN,NaN,NaN,NaN,NaN,NaN,NaN,NaN
Folic acid,HMDB00121,4.315,1,m,NA,0.1262,-2,NC1=NC(=O)C2=NC(CNC3=CC=C(C=C3)C(=O)N[C@@H](CCC(O)=O)C(O)=O)=CN=C2N1,InChIKey=OVBPIULPVIDEAO-LBPRGKRZSA-N,11.25,-3.7,0.039333333,NA,NaN,NaN,0.053,NaN,NaN,NaN,NaN,NaN,NaN,NaN
Cytidine,HMDB00089,4.315,11,t,4.67,0.507,0,NC1=NC(=O)N(C=C1)[C@@H]1O[C@H](CO)[C@@H](O)[C@H]1O,InChIKey=UHDGCWIWMRVCDJ-XVFCMESISA-N,12.18,-5.4,0.175,0.393333333,NaN,0.132,NaN,NaN,NaN,NaN,NaN,NaN,NaN,NaN
Adenosine,HMDB00050,4.315,1,q,3.3,0.1387,0,NC1=NC=NC2=C1N=CN2[C@@H]1O[C@H](CO)[C@@H](O)[C@H]1O,InChIKey=OIRDTQYFTABQOQ-KQYNXXCUSA-N,1.86,-6.7,1.3435,0.335,NaN,0.24,0,NaN,NaN,NaN,NaN,NaN,NaN,NaN
D-Ribose 5-phosphate,HMDB01548,4.315,9,t,4.76,0.3725,-2,OC1O[C@H](COP(O)(O)=O)[C@@H](O)[C@H]1O,InChIKey=KTVPXOYAKDPRHY-SOOFDHNKSA-N,4.64,-6,13.2,NaN,NaN,NaN,NaN,NaN,NaN,NaN,NaN,NaN,NaN,NaN
Deoxyadenosine triphosphate,HMDB01532,4.315,1,d,1.76,0.0299,-3,NC1=NC=NC2=C1N=CN2[C@H]1C[C@H](O)[C@@H](COP(O)(=O)OP(O)(=O)OP(O)(O)=O)O1,InChIKey=SUYVUBYJARFZHO-RRKCRQDMSA-N,9.06,-4.2,NA,NA,NA,NA,NA,NA,NA,NA,NA,NA,NA,NA
TG(10:0/10:0/10:0)[iso],HMDB00548,4.315,2,dd,11.90 4.30,0.0371,0,CCCCCCCCCC(=O)OCC(COC(=O)CCCCCCCCC)OC(=O)CCCCCCCCC,InChIKey=LADGBHLMCUINGV-UHFFFAOYSA-N,4.99,5.15,NA,NA,NA,NA,NA,NA,NA,NA,NA,NA,NA,NA
Glycerophosphocholine,HMDB00086,4.315,2,m,NA,0.0104,0,C[N+](C)(C)CCOP([O-])(=O)OC[C@@H](O)CO,InChIKey=SUHOQUVVVLNYQR-QMMMGPOBSA-N,3.55,-3,NaN,NaN,NaN,9.82,3.9,NaN,NaN,NaN,NaN,NaN,NaN,NaN
Hydroxycobalamin,HMDB02308,4.325,1,br. s.,NA,0.0032,2,[Co++].O.OC[C@H]1O[C@@]([H])([C@H](O)[C@]1([H])OP(=O)([O-])O[C@H](C)CNC(=O)CC[C@]1(C)[C@@H](CC(=O)N)[C@@]2([H])[N-]\C1=C(C)/C1=N/C(=C\C3=N\C(=C(C)/C4=N[C@]2(C)[C@@](C)(CC(=O)N)[C@@H]4CCC(=O)N)\[C@@](C)(CC(=O)N)[C@@H]3CCC(=O)N)/C(C)(C)[C@@H]1CCC(=O)N)N1C=NC2=C1C=C(C)C(C)=C2,InChIKey=DQOCFCZRZOAIBN-WZHZPDAFSA-L,2.45,-1.9,NA,NA,NA,NA,NA,NA,NA,NA,NA,NA,NA,NA
N-Acetylmannosamine,HMDB01129,4.325,1,dd,4.68 1.49,0.0709,0,[H][C@@]1(O)O[C@H](CO)[C@@H](O)[C@H](O)[C@@H]1NC(C)=O,InChIKey=OVRNDRQMDRJTHS-OZRXBMAMSA-N,2.86,2.89,NaN,NaN,NaN,NaN,NaN,NaN,NaN,NaN,NaN,NaN,NaN,NaN
Corticosterone,HMDB01547,4.335,1,d,NA,0.0606,0,[H][C@@]12CC[C@H](C(=O)CO)[C@@]1(C)C[C@H](O)[C@@]1([H])[C@@]2([H])CCC2=CC(=O)CC[C@]12C,InChIKey=OMFXVFTZEKFJBZ-HJTSIMOOSA-N,2.79,-0.13,0.027,NaN,NaN,NaN,NaN,NaN,NaN,NaN,NaN,NaN,NaN,NaN
1-Methylinosine,HMDB02721,4.335,1,dd,5.12 3.63,0.0877,0,CN1C=NC2=C(N=CN2[C@@H]2O[C@H](CO)[C@@H](O)[C@H]2O)C1=O,InChIKey=WJNGQIYEQLPJMN-IOSLPCCCSA-N,18.21,9.04,0.06345,1.13,NaN,NaN,NaN,NaN,NaN,NaN,NaN,NaN,NaN,NaN
Epicatechin,HMDB01871,4.335,1,m,NA,0.304,0,O[C@@H]1CC2=C(O)C=C(O)C=C2O[C@@H]1C1=CC(O)=C(O)C=C1,InChIKey=PFTAWBLQPZVEMU-UKRRQHHQSA-N,1.73,4.95,0.625,0.13,NaN,NaN,NaN,NaN,NaN,NaN,NaN,NaN,NaN,NaN
Benzocaine,HMDB04992,4.335,2,q,7.15,0.2408,0,CCOC(=O)C1=CC=C(N)C=C1,InChIKey=BLFLLBZGZJTVJG-UHFFFAOYSA-N,1.87,10,NA,NA,NA,NA,NA,NA,NA,NA,NA,NA,NA,NA
Citicoline,HMDB01413,4.335,2,ddd,8.64 4.62,0.066,-1,C[N+](C)(C)CCOP([O-])(=O)OP(O)(=O)OC[C@H]1O[C@H]([C@H](O)[C@@H]1O)N1C=CC(N)=NC1=O,InChIKey=RZZPDXZPRHQOCG-OJAKKHQRSA-N,2.12,-3.8,NA,NA,NA,NA,NA,NA,NA,NA,NA,NA,NA,NA
N-Stearoylsphingosine,HMDB00829,4.335,0,m,NA,3.00E-04,0,CCCCCCCCCCCCCCCCCC(=O)NC(CO)C(O)\C=C\CCCCCCCCCCCCC,InChIKey=VODZWWMEJITOND-OWWNRXNESA-N,1.23,-3,NA,NA,NA,NA,NA,NA,NA,NA,NA,NA,NA,NA
Atenolol,HMDB01924,4.335,1,m,NA,0.0786,1,CC(C)NCC(O)COC1=CC=C(CC(N)=O)C=C1,InChIKey=METKIMKYRPQLGS-UHFFFAOYSA-N,15.74,-0.94,NaN,NaN,NaN,NaN,NaN,NaN,NaN,NaN,NaN,NaN,NaN,NaN
Pyridoxamine,HMDB01431,4.336,34,s,NA,0.7309,1,CC1=C(O)C(CN)=C(CO)C=N1,InChIKey=NHZMQXZHNVQTQA-UHFFFAOYSA-N,3.73,10.21,NaN,NaN,NaN,NaN,NaN,NaN,NaN,NaN,NaN,NaN,NaN,NaN
Guanosine diphosphate,HMDB01201,4.338,1,m,NA,0.0981,-2,NC1=NC2=C(N=CN2[C@@H]2O[C@H](COP(O)(=O)OP(O)(O)=O)[C@@H](O)[C@H]2O)C(=O)N1,InChIKey=QGWNDRXFNXRZMB-UUOKFMHZSA-N,12.45,8.87,18,NaN,NaN,NaN,1.86,NaN,NaN,NaN,NaN,NaN,NaN,NaN
Cytidine triphosphate,HMDB00082,4.339,1,dd,NA,0.6622,-3,NC1=NC(=O)N(C=C1)[C@@H]1O[C@H](COP(O)(=O)OP(O)(=O)OP(O)(O)=O)[C@@H](O)[C@H]1O,InChIKey=PCDQPRRSZKQHHS-XVFCMESISA-N,3.57,-3,NaN,NaN,NaN,NaN,NaN,NaN,NaN,NaN,NaN,NaN,NaN,NaN
Guanosine monophosphate,HMDB01397,4.341,1,m,NA,0.0065,-2,NC1=NC2=C(N=CN2[C@@H]2O[C@H](COP(O)(O)=O)[C@@H](O)[C@H]2O)C(=O)N1,InChIKey=RQFCJASXJCIDSX-UUOKFMHZSA-N,4.27,0.53,NaN,NaN,NaN,NaN,NaN,NaN,NaN,NaN,NaN,NaN,NaN,NaN
FAD,HMDB01248,4.345,6,m,NA,0.2621,-3,CC1=CC2=C(C=C1C)N(C[C@H](O)[C@H](O)[C@H](O)COP(O)(=O)OP(O)(=O)OC[C@H]1O[C@H]([C@H](O)[C@@H]1O)N1C=NC3=C1N=CN=C3N)C1=NC(=O)NC(=O)C1=N2,InChIKey=VWWQXMAJTJZDQX-UYBVJOGSSA-N,10.59,-2.6,0.075,NaN,NaN,NaN,NaN,NaN,NaN,NaN,NaN,NaN,NaN,NaN
4-Hydroxyproline,HMDB00725,4.345,1,d,7.97,0.3556,0,O[C@H]1CN[C@@H](C1)C(O)=O,InChIKey=PMMYEEVYMWASQN-DMTCNVIQSA-N,13.86,4,12.4,NA,NaN,0.93,NaN,NaN,NaN,NaN,NaN,NaN,NaN,NaN
FADH,HMDB01197,4.345,6,m,NA,0.2621,-2,CC1=CC2=C(C=C1C)N(C[C@H](O)[C@H](O)[C@H](O)COP(O)(=O)OP(O)(=O)OC[C@H]1O[C@H]([C@H](O)[C@@H]1O)N1C=NC3=C1N=CN=C3N)C1=C(N2)C(=O)NC(=O)N1,InChIKey=YPZRHBJKEMOYQH-UYBVJOGSSA-N,3.63,-3.4,NA,NA,NA,NA,NA,NA,NA,NA,NA,NA,NA,NA
Glucosamine 6-sulfate,HMDB00592,4.345,1,dd,11.25 2.12,0.1024,0,N[C@H]1[C@H](O)O[C@H](COS(O)(=O)=O)[C@@H](O)[C@@H]1O,InChIKey=MTDHILKWIRSIHB-QZABAPFNSA-N,3.2,4.54,NA,NA,NA,NA,NA,NA,NA,NA,NA,NA,NA,NA
Lisinopril,HMDB01938,4.345,1,t,5.91,0.2578,0,NCCCC[C@H](N[C@@H](CCC1=CC=CC=C1)C(O)=O)C(=O)N1CCC[C@H]1C(O)=O,InChIKey=RLAWWYSOJDYHDC-BZSNNMDCSA-N,2.04,-3,NA,NA,NA,NA,NA,NA,NA,NA,NA,NA,NA,NA
Pteroyltriglutamic acid,HMDB01902,4.345,1,m,NA,0.0408,-4,NC1=NC(=O)C2=NC(CNC3=CC=C(C=C3)C(=O)NC(CCC(=O)NC(CCC(=O)NC(CCC(O)=O)C(O)=O)C(O)=O)C(O)=O)=CN=C2N1,InChIKey=WOLQREOUPKZMEX-UHFFFAOYSA-N,13.42,-0.26,NA,NA,NA,NA,NA,NA,NA,NA,NA,NA,NA,NA
5'-Methylthioadenosine,HMDB01173,4.345,3,m,NA,0.0429,0,CSC[C@H]1O[C@H]([C@H](O)[C@@H]1O)N1C=NC2=C1N=CN=C2N,InChIKey=WUUGFSXJNOTRMR-IOSLPCCCSA-N,10.19,-3,NaN,NaN,NaN,NaN,NaN,NaN,NaN,NaN,NaN,NaN,NaN,NaN
Cytidine monophosphate,HMDB00095,4.345,2,m,NA,0.8068,-2,NC1=NC(=O)N(C=C1)[C@@H]1O[C@H](COP(O)(O)=O)[C@@H](O)[C@H]1O,InChIKey=IERHLVCPSMICTF-XVFCMESISA-N,11.62,-3.2,NaN,NaN,NaN,NaN,NaN,NaN,NaN,NaN,NaN,NaN,NaN,NaN
Gamma-Butyrolactone,HMDB00549,4.345,2,t,7.06,1,0,O=C1CCCO1,InChIKey=YEJRWHAVMIAJKC-UHFFFAOYSA-N,1.32,10.12,NaN,NaN,NaN,NaN,NaN,NaN,NaN,NaN,NaN,NaN,NaN,NaN
Ranitidine,HMDB01930,4.345,1,s,NA,0.1782,1,CN\C(NCCSCC1=CC=C(CN(C)C)O1)=C/[N+]([O-])=O,InChIKey=VMXUWOKSQNHOCA-UKTHLTGXSA-N,1.87,10,NaN,NaN,NaN,NaN,NaN,NaN,NaN,NaN,NaN,NaN,NaN,NaN
Vanillactic acid,HMDB00913,4.345,1,dd,7.73 4.32,0.0727,-1,COC1=CC(CC(O)C(O)=O)=CC=C1O,InChIKey=SVYIZYRTOYHQRE-UHFFFAOYSA-N,4.95,4.97,NaN,NaN,NaN,NaN,NaN,NaN,NaN,NaN,NaN,NaN,NaN,NaN
Indolelactic acid,HMDB00671,4.348,1,dd,7.65 4.29,0.1224,-1,OC(CC1=CNC2=C1C=CC=C2)C(O)=O,InChIKey=XGILAAMKEQUXLS-UHFFFAOYSA-N,7.6,5,2.8,0.46,NaN,NaN,NaN,NaN,NaN,NaN,NaN,NaN,NaN,NaN
Ribothymidine,HMDB00884,4.351,1,dd,NA,0.2037,0,CC1=CN([C@@H]2O[C@H](CO)[C@@H](O)[C@H]2O)C(=O)NC1=O,InChIKey=DWRXFEITVBNRMK-JXOAFFINSA-N,0.83,9.06,NaN,NaN,NaN,NaN,NaN,NaN,NaN,NaN,NaN,NaN,NaN,NaN
Tartaric acid,HMDB00956,4.351,2,s,NA,0.1677,-2,O[C@H]([C@@H](O)C(O)=O)C(O)=O,InChIKey=FEWJPZIEWOKRBE-JCYAYHJZSA-N,0.6,-4.2,NaN,12,NaN,NaN,NaN,NaN,NaN,NaN,NaN,NaN,NaN,NaN
Cyclic AMP,HMDB00058,4.355,2,d,5.76,0.3769,-1,NC1=NC=NC2=C1N=CN2[C@@H]1O[C@@H]2COP(O)(=O)O[C@H]2[C@H]1O,InChIKey=IVOMOUWHDPKRLL-KQYNXXCUSA-N,1.86,-0.55,0.0085,0.3,NaN,NaN,0.02125,NaN,NaN,NaN,NaN,NaN,NaN,NaN
Uridine 5'-monophosphate,HMDB00288,4.355,1,t,4.68,0.6134,-2,O[C@H]1[C@@H](O)[C@@H](O[C@@H]1COP(O)(O)=O)N1C=CC(=O)NC1=O,InChIKey=DJJCXFVJDGTHFX-XVFCMESISA-N,4.67,2.02,184,NaN,NaN,0.21,NaN,NaN,NaN,NaN,NaN,NaN,NaN,NaN
Muramic acid,HMDB03254,4.355,2,dq,NA,0.273,0,C[C@@H](O[C@H]1[C@@H](N)[C@H](O)O[C@H](CO)[C@H]1O)C(O)=O,InChIKey=MSFSPUZXLOGKHJ-LEISLEKSSA-N,14.58,-3,NA,NA,NA,NA,NA,NA,NA,NA,NA,NA,NA,NA
Orotidine,HMDB00788,4.355,1,t,6.88,0.2214,-1,OC[C@H]1O[C@H]([C@H](O)[C@@H]1O)N1C(=O)NC(=O)C=C1C(O)=O,InChIKey=FKCRAVPPBFWEJD-XVFCMESISA-N,12.5,-3.6,NaN,NaN,NaN,NaN,NaN,NaN,NaN,NaN,NaN,NaN,NaN,NaN
Uridine,HMDB00296,4.359,1,dd,NA,0.1538,0,OC[C@H]1O[C@H]([C@H](O)[C@@H]1O)N1C=CC(=O)NC1=O,InChIKey=DRTQHJPVMGBUCF-XVFCMESISA-N,3.77,-0.35,3.11,0.602,NaN,NaN,NaN,NaN,NaN,NaN,NaN,NaN,NaN,NaN
Hydroxyphenyllactic acid,HMDB00755,4.365,1,dd,7.23 4.80,0.2026,-1,OC(CC1=CC=C(O)C=C1)C(O)=O,InChIKey=JVGVDSSUAVXRDY-UHFFFAOYSA-N,-1.1,-3,0.64,1.1,NaN,25.1,NaN,NaN,NaN,NaN,NaN,NaN,NaN,NaN
4-Hydroxyproline,HMDB00725,4.365,1,d,7.97,0.3058,0,O[C@H]1CN[C@@H](C1)C(O)=O,InChIKey=PMMYEEVYMWASQN-DMTCNVIQSA-N,13.86,4,12.4,NA,NaN,0.93,NaN,NaN,NaN,NaN,NaN,NaN,NaN,NaN
L-Allothreonine,HMDB04041,4.365,1,m,NA,0.1259,0,C[C@H](O)[C@H](N)C(O)=O,InChIKey=AYFVYJQAPQTCCC-HRFVKAFMSA-N,1.86,-6.7,NaN,NaN,NaN,NaN,NaN,NaN,NaN,NaN,NaN,NaN,NaN,NaN
N-Formyl-L-methionine,HMDB01015,4.365,1,dd,NA,0.0298,-1,CSCC[C@@H](NC=O)C(O)=O,InChIKey=PYUSHNKNPOHWEZ-RXMQYKEDSA-N,1.23,-0.95,NaN,NaN,NaN,NaN,NaN,NaN,NaN,NaN,NaN,NaN,NaN,NaN
NAD,HMDB00902,4.368,1,m,NA,0.1011,-1,NC(=O)C1=C[N+](=CC=C1)[C@@H]1O[C@H](COP(O)(=O)OP(O)(=O)OC[C@H]2O[C@H]([C@H](O)[C@@H]2O)N2C=NC3=C2N=CN=C3N)[C@@H](O)[C@H]1O,InChIKey=BAWFJGJZGIEFAR-NNYOXOHSSA-O,4.36,11.1,24,NaN,NaN,NaN,NaN,NaN,NaN,NaN,NaN,NaN,NaN,NaN
Uridine diphosphate-N-acetylglucosamine,HMDB00290,4.373,1,m,NA,0.0724,-2,CC(=O)N[C@@H]1[C@@H](O)[C@H](O)[C@@H](CO)O[C@@H]1OP(O)(=O)OP(O)(=O)OC[C@H]1O[C@H]([C@H](O)[C@@H]1O)N1C=CC(=O)NC1=O,InChIKey=LFTYTUAZOPRMMI-CFRASDGPSA-N,4.67,-0.88,NaN,NaN,NaN,NaN,NaN,NaN,NaN,NaN,NaN,NaN,NaN,NaN
Adenosine monophosphate,HMDB00045,4.375,1,dd,3.32 1.51,0.1472,-2,NC1=NC=NC2=C1N=CN2[C@@H]1O[C@H](COP(O)(O)=O)[C@@H](O)[C@H]1O,InChIKey=UDMBCSSLTHHNCD-KQYNXXCUSA-N,3.5,-1.4,51,NaN,NaN,0.3,NA,NaN,NaN,NaN,NaN,NaN,NaN,NaN
Inosinic acid,HMDB00175,4.375,1,m,NA,0.0895,-2,O[C@@H]1[C@@H](COP(O)(O)=O)O[C@H]([C@@H]1O)N1C=NC2=C1N=CNC2=O,InChIKey=GRSZFWQUAKGDAV-KQYNXXCUSA-N,18.2,-3,63,NaN,NaN,NaN,3.19,NaN,NaN,NaN,NaN,NaN,NaN,NaN
Adenylsuccinic acid,HMDB00536,4.375,1,br. s.,NA,0.0017,-4,O[C@@H]1[C@@H](COP(O)(O)=O)O[C@H]([C@@H]1O)N1C=NC2=C1N=CN=C2NC(CC(O)=O)C(O)=O,InChIKey=OFBHPPMPBOJXRT-DPXQIYNJSA-N,1.86,-3,NA,NA,NA,NA,NA,NA,NA,NA,NA,NA,NA,NA
D-Glucurono-6.3-lactone,HMDB06355,4.375,1,br. s.,NA,0.4836,0,O[C@@H]1O[C@@H]2[C@@H](O)C(=O)O[C@@H]2[C@H]1O,InChIKey=OGLCQHRZUSEXNB-WHDMSYDLSA-N,2.95,-3.4,NA,NA,NA,NA,NA,NA,NA,NA,NA,NA,NA,NA
Ondansetron,HMDB05035,4.375,1,dd,NA,0.017,1,CN1C2=C(C3=CC=CC=C13)C(=O)C(CN1C=CN=C1C)CC2,InChIKey=FELGMEQIXOGIFQ-UHFFFAOYSA-N,1.87,10,NA,NA,NA,NA,NA,NA,NA,NA,NA,NA,NA,NA
5-Hydroxymethyluracil,HMDB00469,4.375,2,s,NA,0.7626,0,OCC1=CNC(=O)NC1=O,InChIKey=JDBGXEHEIRGOBU-UHFFFAOYSA-N,2.62,-0.18,NaN,0.0626,NaN,NaN,NaN,NaN,NaN,NaN,NaN,NaN,NaN,NaN
Guanosine triphosphate,HMDB01273,4.375,0,m,NA,0.0485,-3,NC1=NC2=C(N=CN2[C@@H]2O[C@H](COP(O)(=O)OP(O)(=O)OP(O)(O)=O)[C@@H](O)[C@H]2O)C(=O)N1,InChIKey=XKMLYUALXHKNFT-UUOKFMHZSA-N,12.43,-1.2,NaN,NaN,NaN,NaN,1.83,NaN,NaN,NaN,NaN,NaN,NaN,NaN
Citicoline,HMDB01413,4.385,2,m,NA,0.0301,-1,C[N+](C)(C)CCOP([O-])(=O)OP(O)(=O)OC[C@H]1O[C@H]([C@H](O)[C@@H]1O)N1C=CC(N)=NC1=O,InChIKey=RZZPDXZPRHQOCG-OJAKKHQRSA-N,2.12,-3.8,NA,NA,NA,NA,NA,NA,NA,NA,NA,NA,NA,NA
NADP,HMDB00217,4.385,1,m,NA,0.1028,-3,NC(=O)C1=C[N+](=CC=C1)[C@@H]1O[C@H](CO[P@](O)(=O)O[P@](O)(=O)OC[C@H]2O[C@H]([C@H](OP(O)(O)=O)[C@@H]2O)N2C=NC3=C(N)N=CN=C23)[C@@H](O)[C@H]1O,InChIKey=XJLXINKUBYWONI-NNYOXOHSSA-O,4.48,-2.8,NA,NA,NA,NA,NA,NA,NA,NA,NA,NA,NA,NA
D-Xylulose,HMDB01644,4.385,1,q,NA,0.1013,0,OC[C@@H](O)[C@H](O)C(=O)CO,InChIKey=ZAQJHHRNXZUBTE-WUJLRWPWSA-N,3.08,-1,NaN,NaN,NaN,NaN,NaN,NaN,NaN,NaN,NaN,NaN,NaN,NaN
N-Acetyl-L-methionine,HMDB11745,4.385,10,m,NA,0.0387,-1,CSCCC(NC(C)=O)C(O)=O,InChIKey=XUYPXLNMDZIRQH-UHFFFAOYSA-N,1.86,-6.7,NaN,NaN,NaN,NaN,NaN,NaN,NaN,NaN,NaN,NaN,NaN,NaN
Uridine diphosphate glucose,HMDB00286,4.385,2,m,NA,0.7464,-2,OC[C@@H]1OC(OP(O)(=O)OP(O)(=O)OC[C@@H]2O[C@@H]([C@@H](O)[C@H]2O)N2C=CC(=O)NC2=O)[C@@H](O)[C@H](O)[C@H]1O,InChIKey=HSCJRCZFDFQWRP-LPTOLDDLSA-N,18.3,0.7,NaN,NaN,NaN,NaN,NaN,NaN,NaN,NaN,NaN,NaN,NaN,NaN
Uridine diphosphategalactose,HMDB00302,4.385,2,m,NA,0.8047,-2,OC[C@H]1O[C@H](O[P@@](O)(=O)O[P@@](O)(=O)OC[C@H]2O[C@H]([C@H](O)[C@@H]2O)N2C=CC(=O)NC2=O)[C@H](O)[C@@H](O)[C@H]1O,InChIKey=HSCJRCZFDFQWRP-ABVWGUQPSA-N,4.48,-2.8,NaN,NaN,NaN,NaN,NaN,NaN,NaN,NaN,NaN,NaN,NaN,NaN
NAD,HMDB00902,4.388,1,m,NA,0.2588,-1,NC(=O)C1=C[N+](=CC=C1)[C@@H]1O[C@H](COP(O)(=O)OP(O)(=O)OC[C@H]2O[C@H]([C@H](O)[C@@H]2O)N2C=NC3=C2N=CN=C3N)[C@@H](O)[C@H]1O,InChIKey=BAWFJGJZGIEFAR-NNYOXOHSSA-O,4.36,11.1,24,NaN,NaN,NaN,NaN,NaN,NaN,NaN,NaN,NaN,NaN,NaN
Xanthosine,HMDB00299,4.395,12,dd,5.08 2.97,0.2083,0,OC[C@H]1O[C@H]([C@H](O)[C@@H]1O)N1C=NC2=C1N=C(O)N=C2O,InChIKey=UBORTCNDUKBEOP-UUOKFMHZSA-N,4.51,-0.61,5.08,NaN,NaN,NaN,NaN,NaN,NaN,NaN,NaN,NaN,NaN,NaN
N-Acetyl-L-tyrosine,HMDB00866,4.395,7,m,NA,0.0899,-1,CC(=O)N[C@@H](CC1=CC=C(O)C=C1)C(O)=O,InChIKey=CAHKINHBCWCHCF-JTQLQIEISA-N,4.09,9.9,NaN,NaN,NaN,NaN,NaN,NaN,NaN,NaN,NaN,NaN,NaN,NaN
Uridine 5'-diphosphate,HMDB00295,4.395,1,t,4.9,0.4423,-2,O[C@H]1[C@@H](O)[C@@H](O[C@@H]1COP(O)(=O)OP(O)(O)=O)N1C=CC(=O)NC1=O,InChIKey=XCCTYIAWTASOJW-XVFCMESISA-N,5.25,-2.8,NaN,NaN,NaN,NaN,NaN,NaN,NaN,NaN,NaN,NaN,NaN,NaN
Levofloxacin,HMDB01929,4.405,1,dd,NA,0.0385,-1,C[C@H]1COC2=C(N3CCN(C)CC3)C(F)=CC3=C2N1C=C(C(O)=O)C3=O,InChIKey=GSDSWSVVBLHKDQ-JTQLQIEISA-N,3.51,-6.3,0.135,NaN,NaN,NaN,NaN,NaN,NaN,NaN,NaN,NaN,NaN,NaN
3-Hydroxyglutaric acid,HMDB00428,4.405,1,m,NA,0.4155,-2,OC(CC(O)=O)CC(O)=O,InChIKey=ZQHYXNSQOIDNTL-UHFFFAOYSA-N,5.09,-1.4,0.15,NaN,NaN,NaN,NaN,NaN,NaN,NaN,NaN,NaN,NaN,NaN
Azythromycin,HMDB01916,4.405,1,d,NA,0.0298,2,CC[C@@H]1OC(=O)[C@H](C)[C@@H](O[C@@H]2C[C@](C)(OC)[C@H](O)[C@@H](C)O2)[C@@H](C)[C@H](O[C@H]2O[C@@H](C)C[C@H]([C@@H]2O)N(C)C)[C@@](C)(O)C[C@H](C)CN(C)[C@@H](C)[C@@H](O)[C@]1(C)O,InChIKey=MQTOSJVFKKJCRP-HHZDEWPHSA-N,3.84,1.99,NA,NA,NA,NA,NA,NA,NA,NA,NA,NA,NA,NA
Erythrose,HMDB02649,4.405,1,m,NA,0.1075,0,O[C@@H]1COC(O)[C@@H]1O,InChIKey=FMAORJIQYMIRHF-HERZVMAMSA-N,1.93,-0.63,NaN,NaN,NaN,NaN,NaN,NaN,NaN,NaN,NaN,NaN,NaN,NaN
Adenosine triphosphate,HMDB00538,4.409,1,m,NA,0.1757,-3,NC1=NC=NC2=C1N=CN2[C@@H]1O[C@H](COP(O)(=O)OP(O)(=O)OP(O)(O)=O)[C@@H](O)[C@H]1O,InChIKey=ZKHQWZAMYRWXGA-KQYNXXCUSA-N,2.83,-0.58,2271,NaN,NaN,0.47,1.85,NaN,NaN,NaN,NaN,NaN,NaN,NaN
Guanosine,HMDB00133,4.415,1,dd,5.10 3.89,0.1703,0,NC1=NC2=C(N=CN2[C@@H]2O[C@H](CO)[C@@H](O)[C@H]2O)C(=O)N1,InChIKey=NYHBQMYGNKIUIF-UUOKFMHZSA-N,2.48,-3.6,0.8,0.08,NaN,0.101,NaN,NaN,NaN,NaN,NaN,NaN,NaN,NaN