Metabolite,HMDB Name,Shift (ppm),Hs,Type,J (Hz),Height,Physiological Charge,SMILES,InChlKey,pKa (Strongest Acidic),pKa (Strongest Basic),Blood,Urine,Feces,Saliva,Cerebrospinal Fluid (CSF),Amniotic Fluid,Aqueous Humour,Ascites Fluid,Breast Milk,Lymph,Sweat,Tears
Adenosine phosphosulfate,HMDB01003,4.415,1,m,NA,0.2149,-2,NC1=NC=NC2=C1N=CN2[C@@H]1O[C@H](COP(O)(=O)OS(O)(=O)=O)[C@@H](O)[C@H]1O,InChIKey=IRLPACMLTUPBCL-KQYNXXCUSA-N,1.77,-3.2,NA,NA,NA,NA,NA,NA,NA,NA,NA,NA,NA,NA
Inosine triphosphate,HMDB00189,4.415,1,m,NA,0.1993,-3,O[C@@H]1[C@@H](COP(O)(=O)OP(O)(=O)OP(O)(O)=O)O[C@H]([C@@H]1O)N1C=NC2=C1N=CN=C2O,InChIKey=HAEJPQIATWHALX-KQYNXXCUSA-N,1.51,-3.7,NA,NA,NA,NA,NA,NA,NA,NA,NA,NA,NA,NA
N-Acetyl-L-aspartic acid,HMDB00812,4.415,6,ddd,9.97 7.66 3.79,0.0165,-2,CC(=O)N[C@@H](CC(O)=O)C(O)=O,InChIKey=OTCCIMWXFLJLIA-BYPYZUCNSA-N,2.94,-3.6,NaN,0.4,NaN,NaN,0.81,NaN,NaN,NaN,NaN,NaN,NaN,NaN
Cytidine triphosphate,HMDB00082,4.422,1,dd,NA,0.4287,-3,NC1=NC(=O)N(C=C1)[C@@H]1O[C@H](COP(O)(=O)OP(O)(=O)OP(O)(O)=O)[C@@H](O)[C@H]1O,InChIKey=PCDQPRRSZKQHHS-XVFCMESISA-N,3.57,-3,NaN,NaN,NaN,NaN,NaN,NaN,NaN,NaN,NaN,NaN,NaN,NaN
Flavin Mononucleotide,HMDB01520,4.425,4,m,NA,0.0147,-3,CC1=CC2=C(C=C1C)N(C[C@H](O)[C@H](O)[C@H](O)COP(O)(O)=O)C1=NC(=O)NC(=O)C1=N2,InChIKey=FVTCRASFADXXNN-SCRDCRAPSA-N,0.83,-3.6,0.0075,NaN,NaN,NaN,NaN,NaN,NaN,NaN,NaN,NaN,NaN,NaN
Uridine 5'-monophosphate,HMDB00288,4.425,1,t,5.2,0.721,-2,O[C@H]1[C@@H](O)[C@@H](O[C@@H]1COP(O)(O)=O)N1C=CC(=O)NC1=O,InChIKey=DJJCXFVJDGTHFX-XVFCMESISA-N,4.67,2.02,184,NaN,NaN,0.21,NaN,NaN,NaN,NaN,NaN,NaN,NaN,NaN
5'-Methylthioadenosine,HMDB01173,4.425,2,m,NA,0.0476,0,CSC[C@H]1O[C@H]([C@H](O)[C@@H]1O)N1C=NC2=C1N=CN=C2N,InChIKey=WUUGFSXJNOTRMR-IOSLPCCCSA-N,10.19,-3,NaN,NaN,NaN,NaN,NaN,NaN,NaN,NaN,NaN,NaN,NaN,NaN
Dihydroxyacetone,HMDB01882,4.425,4,s,NA,1,0,OCC(=O)CO,InChIKey=RXKJFZQQPQGTFL-UHFFFAOYSA-N,15.98,-0.97,NaN,NA,NaN,NaN,NaN,NaN,NaN,NaN,NaN,NaN,NaN,NaN
Galacturonic acid,HMDB02545,4.425,6,d,1.32,0.5026,-1,O[C@@H](C=O)[C@@H](O)[C@@H](O)[C@H](O)C(O)=O,InChIKey=IAJILQKETJEXLJ-RSJOWCBRSA-N,14.58,-3,NaN,NaN,NaN,NaN,NaN,NaN,NaN,NaN,NaN,NaN,NaN,NaN
Acetoin,HMDB03243,4.435,1,q,NA,0.0874,0,CC(O)C(C)=O,InChIKey=ROWKJAVDOGWPAT-UHFFFAOYSA-N,14.58,-3,1.06,NaN,NaN,NaN,NaN,NaN,NaN,NaN,NaN,NaN,NaN,NaN
Inosine,HMDB00195,4.435,1,dd,4.99 3.96,0.0429,-1,OC[C@H]1O[C@H]([C@H](O)[C@@H]1O)N1C=NC2=C1N=CNC2=O,InChIKey=UGQMRVRMYYASKQ-KQYNXXCUSA-N,1.73,9.73,1.3875,0.67,NaN,0.37,0.64,NaN,NaN,NaN,NaN,NaN,NaN,NaN
5-Hydroxymethyl-4-methyluracil,HMDB00544,4.435,1,s,NA,0.1439,0,CC1=C(CO)C(=O)NC(=O)N1,InChIKey=XBAVGYMDOXCWQU-UHFFFAOYSA-N,4,8.9,NA,NA,NA,NA,NA,NA,NA,NA,NA,NA,NA,NA
Biocytin,HMDB03134,4.435,4,m,NA,0.2649,0,[H][C@]12CS[C@@H](CCCCC(=O)NCCCC[C@H](N)C(O)=O)[C@@]1([H])NC(=O)N2,InChIKey=BAQMYDQNMFBZNA-MNXVOIDGSA-N,14.58,-3,NA,NA,NA,NA,NA,NA,NA,NA,NA,NA,NA,NA
Shikimic acid,HMDB03070,4.435,16,t,4.12,1,-1,O[C@@H]1CC(=C[C@@H](O)[C@H]1O)C(O)=O,InChIKey=JXOHGGNKMLTUBP-HSUXUTPPSA-N,1.86,-0.032,NaN,NaN,NaN,NaN,NaN,NaN,NaN,NaN,NaN,NaN,NaN,NaN
Uridine 5'-diphosphate,HMDB00295,4.435,1,t,5.09,0.4903,-2,O[C@H]1[C@@H](O)[C@@H](O[C@@H]1COP(O)(=O)OP(O)(O)=O)N1C=CC(=O)NC1=O,InChIKey=XCCTYIAWTASOJW-XVFCMESISA-N,5.25,-2.8,NaN,NaN,NaN,NaN,NaN,NaN,NaN,NaN,NaN,NaN,NaN,NaN
Trigonelline,HMDB00875,4.443,3,s,NA,1,0,C[N+]1=CC(=CC=C1)C([O-])=O,InChIKey=WWNNZCOKKKDOPX-UHFFFAOYSA-N,1.93,-8.2,NaN,NaN,NaN,NaN,NaN,NaN,NaN,NaN,NaN,NaN,NaN,NaN
Aldosterone,HMDB00037,4.445,1,d,NA,0.0315,0,C[C@]12CCC(=O)C=C1CCC1C3CC[C@H](C(=O)CO)[C@]3(C[C@H](O)C21)C=O,InChIKey=PQSUYGKTWSAVDQ-SRPWZAMTSA-N,4.03,-3,6.80E-05,0.01,NaN,NA,NaN,NaN,NaN,NaN,NaN,NaN,NaN,NaN
Biopterin,HMDB00468,4.445,1,d,3.52,0.1756,0,C[C@H](O)[C@H](O)C1=NC2=C(NC(N)=NC2=O)N=C1,InChIKey=LHQIJBMDNUYRAM-DZSWIPIPSA-N,-1.9,3.8,0.017,NaN,NaN,NaN,NaN,NaN,NaN,NaN,NaN,NaN,NaN,NaN
N-Acetylaspartylglutamic acid,HMDB01067,4.445,1,dd,9.05 4.81,0.0658,-3,CC(=O)NC(CC(O)=O)C(=O)NC(CCC(O)=O)C(O)=O,InChIKey=OPVPGKGADVGKTG-UHFFFAOYSA-N,0.83,4.95,4.89,NaN,NaN,NaN,3.375,NaN,NaN,NaN,NaN,NaN,NaN,NaN
Selenocystine,HMDB04122,4.445,2,dd,7.68 4.59,0.9715,0,NC(C[Se][Se]CC(N)C(O)=O)C(O)=O,InChIKey=JULROCUWKLNBSN-UHFFFAOYSA-N,1.86,-4.8,NaN,NaN,NaN,NaN,NaN,NaN,NaN,NaN,NaN,NaN,NaN,NaN
NAD,HMDB00902,4.449,1,dd,4.91 2.94,0.1866,-1,NC(=O)C1=C[N+](=CC=C1)[C@@H]1O[C@H](COP(O)(=O)OP(O)(=O)OC[C@H]2O[C@H]([C@H](O)[C@@H]2O)N2C=NC3=C2N=CN=C3N)[C@@H](O)[C@H]1O,InChIKey=BAWFJGJZGIEFAR-NNYOXOHSSA-O,4.36,11.1,24,NaN,NaN,NaN,NaN,NaN,NaN,NaN,NaN,NaN,NaN,NaN
Adenosine,HMDB00050,4.453,1,dd,5.03 3.45,0.0753,0,NC1=NC=NC2=C1N=CN2[C@@H]1O[C@H](CO)[C@@H](O)[C@H]1O,InChIKey=OIRDTQYFTABQOQ-KQYNXXCUSA-N,1.86,-6.7,1.3435,0.335,NaN,0.24,0,NaN,NaN,NaN,NaN,NaN,NaN,NaN
Cortisone,HMDB02802,4.455,1,dd,19.34 6.63,0.0955,0,[H][C@@]12CC[C@](O)(C(=O)CO)[C@@]1(C)CC(=O)[C@@]1([H])[C@@]2([H])CCC2=CC(=O)CC[C@]12C,InChIKey=MFYSYFVPBJMHGN-ZPOLXVRWSA-N,17.79,2.77,0.0624,0.011,NaN,NaN,NaN,NaN,NaN,NaN,NaN,NaN,NaN,NaN
Dimethylallylpyrophosphate,HMDB01120,4.455,2,m,NA,0.0196,-2,CC(C)=CCOP(O)(=O)OP(O)(O)=O,InChIKey=CBIDRCWHNCKSTO-UHFFFAOYSA-N,4.66,-3.6,NA,NA,NA,NA,NA,NA,NA,NA,NA,NA,NA,NA
Alpha-Lactose,HMDB00186,4.455,1,d,8.58,0.0914,0,OC[C@H]1O[C@@H](O[C@H]2[C@H](O)[C@@H](O)[C@@H](O)O[C@@H]2CO)[C@H](O)[C@@H](O)[C@H]1O,InChIKey=GUBGYTABKSRVRQ-XLOQQCSPSA-N,1.87,10,NaN,1.45,NaN,NaN,NaN,NaN,NaN,NaN,NaN,NaN,NaN,NaN
N-Acetylmannosamine,HMDB01129,4.455,1,dd,4.37 1.46,0.0588,0,[H][C@@]1(O)O[C@H](CO)[C@@H](O)[C@H](O)[C@@H]1NC(C)=O,InChIKey=OVRNDRQMDRJTHS-OZRXBMAMSA-N,2.86,2.89,NaN,NaN,NaN,NaN,NaN,NaN,NaN,NaN,NaN,NaN,NaN,NaN
Ribonolactone,HMDB01900,4.455,1,d,6.18,0.5306,0,OC[C@H]1OC(=O)[C@H](O)[C@@H]1O,InChIKey=CUOKHACJLGPRHD-BXXZVTAOSA-N,18.21,-3.3,NaN,NaN,NaN,NaN,NaN,NaN,NaN,NaN,NaN,NaN,NaN,NaN
NADP,HMDB00217,4.465,1,dd,4.87 2.77,0.2045,-3,NC(=O)C1=C[N+](=CC=C1)[C@@H]1O[C@H](CO[P@](O)(=O)O[P@](O)(=O)OC[C@H]2O[C@H]([C@H](OP(O)(O)=O)[C@@H]2O)N2C=NC3=C(N)N=CN=C23)[C@@H](O)[C@H]1O,InChIKey=XJLXINKUBYWONI-NNYOXOHSSA-O,4.48,-2.8,NA,NA,NA,NA,NA,NA,NA,NA,NA,NA,NA,NA
Deoxycytidine,HMDB00014,4.465,1,dt,6.46 4.07,0.3225,0,NC1=NC(=O)N(C=C1)[C@H]1C[C@H](O)[C@@H](CO)O1,InChIKey=CKTSBUTUHBMZGZ-SHYZEUOFSA-N,10.39,9.5,NaN,NaN,NaN,NaN,NaN,NaN,NaN,NaN,NaN,NaN,NaN,NaN
PA(16:0/16:0),HMDB00674,4.465,1,dd,NA,0.0036,-2,CCCCCCCCCCCCCCCC(=O)OC[C@H](COP(O)(O)=O)OC(=O)CCCCCCCCCCCCCCC,InChIKey=PORPENFLTBBHSG-MGBGTMOVSA-N,2.56,10.29,NaN,NaN,NaN,NaN,NaN,NaN,NaN,NaN,NaN,NaN,NaN,NaN
FAD,HMDB01248,4.475,1,t,4.53,0.1822,-3,CC1=CC2=C(C=C1C)N(C[C@H](O)[C@H](O)[C@H](O)COP(O)(=O)OP(O)(=O)OC[C@H]1O[C@H]([C@H](O)[C@@H]1O)N1C=NC3=C1N=CN=C3N)C1=NC(=O)NC(=O)C1=N2,InChIKey=VWWQXMAJTJZDQX-UYBVJOGSSA-N,10.59,-2.6,0.075,NaN,NaN,NaN,NaN,NaN,NaN,NaN,NaN,NaN,NaN,NaN
1-Methyladenosine,HMDB03331,4.475,1,t,4.73,0.1294,0,CN1C=NC2=C(N=CN2[C@@H]2O[C@H](CO)[C@@H](O)[C@H]2O)C1=N,InChIKey=GFYLSDSUCHVORB-IOSLPCCCSA-N,14.58,-3,0.1,8.716666667,NaN,NaN,NaN,NaN,NaN,NaN,NaN,NaN,NaN,NaN
L(-)-Nicotine pestanal,HMDB01934,4.475,1,dd,10.32 7.73,0.0759,1,CN1CCC[C@H]1C1=CN=CC=C1,InChIKey=SNICXCGAKADSCV-JTQLQIEISA-N,1.87,10,0.745,NaN,NaN,NaN,NaN,NaN,NaN,NaN,NaN,NaN,NaN,NaN
PC(16:0/16:0),HMDB00564,4.475,1,m,NA,0.0127,0,CCCCCCCCCCCCCCCC(=O)OC[C@H](COP([O-])(=O)OCC[N+](C)(C)C)OC(=O)CCCCCCCCCCCCCCC,InChIKey=KILNVBDSWZSGLL-KXQOOQHDSA-N,4.6,-2.9,584.557,NaN,NaN,NaN,NaN,NaN,NaN,NaN,NaN,NaN,NaN,NaN
FADH,HMDB01197,4.475,1,t,4.53,0.1822,-2,CC1=CC2=C(C=C1C)N(C[C@H](O)[C@H](O)[C@H](O)COP(O)(=O)OP(O)(=O)OC[C@H]1O[C@H]([C@H](O)[C@@H]1O)N1C=NC3=C1N=CN=C3N)C1=C(N2)C(=O)NC(=O)N1,InChIKey=YPZRHBJKEMOYQH-UYBVJOGSSA-N,3.63,-3.4,NA,NA,NA,NA,NA,NA,NA,NA,NA,NA,NA,NA
Mevalonolactone,HMDB06024,4.475,1,m,NA,0.1007,0,C[C@]1(O)CCOC(=O)C1,InChIKey=JYVXNLLUYHCIIH-LURJTMIESA-N,1.86,-3,NaN,NaN,NaN,NaN,NaN,NaN,NaN,NaN,NaN,NaN,NaN,NaN
Thymidine,HMDB00273,4.478,1,dt,NA,0.1103,0,CC1=CN([C@H]2C[C@H](O)[C@@H](CO)O2)C(=O)NC1=O,InChIKey=IQFYYKKMVGJFEH-XLPZGREQSA-N,18.3,-5.5,0.205,6.87,NaN,NaN,NaN,NaN,NaN,NaN,NaN,NaN,NaN,NaN
Deoxyuridine,HMDB00012,4.485,8,dt,6.47 4.02,0.0875,0,OC[C@H]1O[C@H](C[C@@H]1O)N1C=CC(=O)NC1=O,InChIKey=MXHRCPNRJAMMIM-SHYZEUOFSA-N,4,-9.7,0.284,1,NaN,NaN,0,NaN,NaN,NaN,NaN,NaN,NaN,NaN
N-Acetyllactosamine,HMDB01542,4.485,1,dd,NA,0.1222,0,CC(=O)N[C@H]1[C@H](O)O[C@H](CO)[C@@H](O[C@@H]2O[C@H](CO)[C@H](O)[C@H](O)[C@H]2O)[C@@H]1O,InChIKey=KFEUJDWYNGMDBV-LODBTCKLSA-N,4.82,-0.54,NA,NA,NA,NA,NA,NA,NA,NA,NA,NA,NA,NA
Thymidine 3'.5'-cyclic monophosphate,HMDB01570,4.485,1,m,NA,0.0515,-1,CC1=CN([C@H]2CC3OP(O)(=O)OCC3O2)C(=O)NC1=O,InChIKey=QSJFDOVQWZVUQG-KAVNDROISA-N,4.82,-1.5,NA,NA,NA,NA,NA,NA,NA,NA,NA,NA,NA,NA
Nicotinamide ribotide,HMDB00229,4.485,1,dd,4.79 2.15,0.4152,-1,NC(=O)C1=CC=C[N+](=C1)[C@@H]1O[C@H](COP(O)([O-])=O)[C@@H](O)[C@H]1O,InChIKey=DAYLJWODMCOQEW-TURQNECASA-N,14.55,-1,NaN,66.67,NaN,NaN,NaN,NaN,NaN,NaN,NaN,NaN,NaN,NaN
1-Methylnicotinamide,HMDB00699,4.49,3,s,NA,0.5321,1,C[N+]1=CC=CC(=C1)C(N)=O,InChIKey=LDHMAVIPBRSVRG-UHFFFAOYSA-O,4.22,0.02,0.43,4.3025,NaN,NaN,NaN,NaN,NaN,NaN,NaN,NaN,NaN,NaN
Riboflavin,HMDB00244,4.495,1,m,NA,0.0392,-1,CC1=C(C)C=C2N(C[C@H](O)[C@H](O)[C@H](O)CO)C3=NC(=O)NC(=O)C3=NC2=C1,InChIKey=AUNGANRZJHBGPY-SCRDCRAPSA-N,4.17,-3,0.015,0.18,NaN,0.058,NaN,NaN,NaN,NaN,NaN,NaN,NaN,NaN
Carnosine,HMDB00033,4.495,1,m,NA,0.075,0,NCCC(=O)N[C@@H](CC1=CN=CN1)C(O)=O,InChIKey=CQOVPNPJLQNMDC-ZETCQYMHSA-N,1.86,8.86,6.54,1.84,NaN,NaN,NaN,NaN,NaN,NaN,NaN,NaN,NaN,NaN
Adenylsuccinic acid,HMDB00536,4.495,2,m,NA,0.0018,-4,O[C@@H]1[C@@H](COP(O)(O)=O)O[C@H]([C@@H]1O)N1C=NC2=C1N=CN=C2NC(CC(O)=O)C(O)=O,InChIKey=OFBHPPMPBOJXRT-DPXQIYNJSA-N,1.86,-3,NA,NA,NA,NA,NA,NA,NA,NA,NA,NA,NA,NA
Homocarnosine,HMDB00745,4.495,6,m,NA,0.0688,0,NCCCC(=O)N[C@@H](CC1=CNC=N1)C(O)=O,InChIKey=CCLQKVKJOGVQLU-QMMMGPOBSA-N,-1.3,-1.2,NaN,NaN,NaN,NaN,NaN,NaN,NaN,NaN,NaN,NaN,NaN,NaN
N-Methylnicotinamide,HMDB03152,4.495,3,s,NA,1,0,CNC(=O)C1=CN=CC=C1,InChIKey=ZYVXHFWBYUDDBM-UHFFFAOYSA-N,14.58,-3,NaN,NaN,NaN,NaN,NaN,NaN,NaN,NaN,NaN,NaN,NaN,NaN
Propranolol,HMDB01849,4.495,1,m,NA,0.0159,1,CC(C)NCC(O)COC1=CC=CC2=CC=CC=C12,InChIKey=AQHHHDLHHXJYJD-UHFFFAOYSA-N,3.16,-4.2,NaN,NaN,NaN,NaN,NaN,NaN,NaN,NaN,NaN,NaN,NaN,NaN
Anserine,HMDB00194,4.505,1,dd,NA,0.0558,0,CN1C=NC=C1C[C@H](NC(=O)CCN)C(O)=O,InChIKey=MYYIAHXIVFADCU-QMMMGPOBSA-N,0.9,-3.6,41,NA,NaN,NaN,NaN,NaN,NaN,NaN,NaN,NaN,NaN,NaN
N-Acetylserine,HMDB02931,4.505,1,m,NA,0.0591,-1,CC(=O)N[C@@H](CO)C(O)=O,InChIKey=JJIHLJJYMXLCOY-BYPYZUCNSA-N,11.25,-0.88,NaN,NaN,NaN,NaN,NaN,NaN,NaN,NaN,NaN,NaN,NaN,NaN
Guanosine monophosphate,HMDB01397,4.507,1,s,NA,0.0081,-2,NC1=NC2=C(N=CN2[C@@H]2O[C@H](COP(O)(O)=O)[C@@H](O)[C@H]2O)C(=O)N1,InChIKey=RQFCJASXJCIDSX-UUOKFMHZSA-N,4.27,0.53,NaN,NaN,NaN,NaN,NaN,NaN,NaN,NaN,NaN,NaN,NaN,NaN
Mevalonic acid,HMDB00227,4.514,2,m,56.28 11.48 5.00,0.0023,-1,CC(O)(CCO)CC(O)=O,InChIKey=KJTLQQUUPVSXIM-UHFFFAOYSA-N,3.44,-2.9,0.028,0.217775,NaN,NaN,NaN,NaN,NaN,NaN,NaN,NaN,NaN,NaN
NAD,HMDB00902,4.514,1,m,NA,0.1973,-1,NC(=O)C1=C[N+](=CC=C1)[C@@H]1O[C@H](COP(O)(=O)OP(O)(=O)OC[C@H]2O[C@H]([C@H](O)[C@@H]2O)N2C=NC3=C2N=CN=C3N)[C@@H](O)[C@H]1O,InChIKey=BAWFJGJZGIEFAR-NNYOXOHSSA-O,4.36,11.1,24,NaN,NaN,NaN,NaN,NaN,NaN,NaN,NaN,NaN,NaN,NaN
FAD,HMDB01248,4.515,1,t,5.12,0.1729,-3,CC1=CC2=C(C=C1C)N(C[C@H](O)[C@H](O)[C@H](O)COP(O)(=O)OP(O)(=O)OC[C@H]1O[C@H]([C@H](O)[C@@H]1O)N1C=NC3=C1N=CN=C3N)C1=NC(=O)NC(=O)C1=N2,InChIKey=VWWQXMAJTJZDQX-UYBVJOGSSA-N,10.59,-2.6,0.075,NaN,NaN,NaN,NaN,NaN,NaN,NaN,NaN,NaN,NaN,NaN
Adenosine monophosphate,HMDB00045,4.515,1,dd,5.08 3.48,0.1591,-2,NC1=NC=NC2=C1N=CN2[C@@H]1O[C@H](COP(O)(O)=O)[C@@H](O)[C@H]1O,InChIKey=UDMBCSSLTHHNCD-KQYNXXCUSA-N,3.5,-1.4,51,NaN,NaN,0.3,NA,NaN,NaN,NaN,NaN,NaN,NaN,NaN
Inosinic acid,HMDB00175,4.515,1,m,NA,0.0412,-2,O[C@@H]1[C@@H](COP(O)(O)=O)O[C@H]([C@@H]1O)N1C=NC2=C1N=CNC2=O,InChIKey=GRSZFWQUAKGDAV-KQYNXXCUSA-N,18.2,-3,63,NaN,NaN,NaN,3.19,NaN,NaN,NaN,NaN,NaN,NaN,NaN
FADH,HMDB01197,4.515,1,t,5.12,0.1729,-2,CC1=CC2=C(C=C1C)N(C[C@H](O)[C@H](O)[C@H](O)COP(O)(=O)OP(O)(=O)OC[C@H]1O[C@H]([C@H](O)[C@@H]1O)N1C=NC3=C1N=CN=C3N)C1=C(N2)C(=O)NC(=O)N1,InChIKey=YPZRHBJKEMOYQH-UYBVJOGSSA-N,3.63,-3.4,NA,NA,NA,NA,NA,NA,NA,NA,NA,NA,NA,NA
Furosemide,HMDB01933,4.515,2,s,NA,0.1664,-1,NS(=O)(=O)C1=C(Cl)C=C(NCC2=CC=CO2)C(=C1)C(O)=O,InChIKey=ZZUFCTLCJUWOSV-UHFFFAOYSA-N,3.13,4.99,NA,NA,NA,NA,NA,NA,NA,NA,NA,NA,NA,NA
Pteroyltriglutamic acid,HMDB01902,4.515,2,s,NA,0.0972,-4,NC1=NC(=O)C2=NC(CNC3=CC=C(C=C3)C(=O)NC(CCC(=O)NC(CCC(=O)NC(CCC(O)=O)C(O)=O)C(O)=O)C(O)=O)=CN=C2N1,InChIKey=WOLQREOUPKZMEX-UHFFFAOYSA-N,13.42,-0.26,NA,NA,NA,NA,NA,NA,NA,NA,NA,NA,NA,NA
Adenosine triphosphate,HMDB00538,4.522,1,m,NA,0.0035,-3,NC1=NC=NC2=C1N=CN2[C@@H]1O[C@H](COP(O)(=O)OP(O)(=O)OP(O)(O)=O)[C@@H](O)[C@H]1O,InChIKey=ZKHQWZAMYRWXGA-KQYNXXCUSA-N,2.83,-0.58,2271,NaN,NaN,0.47,1.85,NaN,NaN,NaN,NaN,NaN,NaN,NaN
4-Pyridoxic acid,HMDB00017,4.525,1,s,NA,0.044,-1,CC1=NC=C(CO)C(C(O)=O)=C1O,InChIKey=HXACOUQIXZGNBF-UHFFFAOYSA-N,4.23,0.025,0.0335,NaN,NaN,NaN,NaN,NaN,NaN,NaN,NaN,NaN,NaN,NaN
Adenosine phosphosulfate,HMDB01003,4.525,1,ddd,17.17 5.12 3.36,0.2254,-2,NC1=NC=NC2=C1N=CN2[C@@H]1O[C@H](COP(O)(=O)OS(O)(=O)=O)[C@@H](O)[C@H]1O,InChIKey=IRLPACMLTUPBCL-KQYNXXCUSA-N,1.77,-3.2,NA,NA,NA,NA,NA,NA,NA,NA,NA,NA,NA,NA
L-Arabinose,HMDB00646,4.535,1,d,7.75,0.2245,0,O[C@H]1COC(O)[C@H](O)[C@H]1O,InChIKey=SRBFZHDQGSBBOR-HWQSCIPKSA-N,13.62,-3,2.5,8.75,NaN,NaN,14.15,NaN,NaN,NaN,NaN,NaN,NaN,NaN
Cellobiose,HMDB00055,4.535,5,d,7.91,0.2001,0,OC[C@H]1O[C@@H](O[C@H]2[C@H](O)[C@@H](O)[C@H](O)O[C@@H]2CO)[C@H](O)[C@@H](O)[C@@H]1O,InChIKey=GUBGYTABKSRVRQ-QRZGKKJRSA-N,11.7,1.83,NA,NA,NA,NA,NA,NA,NA,NA,NA,NA,NA,NA
Hesperidin,HMDB03265,4.535,1,s,NA,0.0939,0,COC1=CC=C(C=C1O)[C@@H]1CC(=O)C2=C(O1)C=C(OC1O[C@H](CO[C@H]3O[C@@H](C)[C@@H](O)[C@@H](O)[C@H]3O)[C@H](O)[C@H](O)[C@H]1O)C=C2O,InChIKey=QUQPHWDTPGMPEX-UNZJSITISA-N,14.58,-3,NA,NA,NA,NA,NA,NA,NA,NA,NA,NA,NA,NA
NADP,HMDB00217,4.535,1,t,5.24,0.2479,-3,NC(=O)C1=C[N+](=CC=C1)[C@@H]1O[C@H](CO[P@](O)(=O)O[P@](O)(=O)OC[C@H]2O[C@H]([C@H](OP(O)(O)=O)[C@@H]2O)N2C=NC3=C(N)N=CN=C23)[C@@H](O)[C@H]1O,InChIKey=XJLXINKUBYWONI-NNYOXOHSSA-O,4.48,-2.8,NA,NA,NA,NA,NA,NA,NA,NA,NA,NA,NA,NA
2.3-Diphosphoglyceric acid,HMDB01294,4.535,1,m,NA,0.0487,-5,OC(=O)[C@@H](COP(O)(O)=O)OP(O)(O)=O,InChIKey=XOHUEYCVLUUEJJ-UWTATZPHSA-N,4.84,-3.7,NaN,NaN,NaN,NaN,NaN,NaN,NaN,NaN,NaN,NaN,NaN,NaN
Adenosine 3'.5'-diphosphate,HMDB00061,4.535,1,br. s.,NA,0.1154,-4,NC1=NC=NC2=C1N=CN2[C@@H]1O[C@H](COP(O)(O)=O)[C@@H](OP(O)(O)=O)[C@H]1O,InChIKey=WHTCPDAXWFLDIH-KQYNXXCUSA-N,9.07,4.95,NaN,NaN,NaN,NaN,NaN,NaN,NaN,NaN,NaN,NaN,NaN,NaN
Rutin,HMDB03249,4.535,1,d,1.49,0.2333,-1,C[C@@H]1O[C@@H](OC[C@H]2O[C@@H](OC3=C(OC4=CC(O)=CC(O)=C4C3=O)C3=CC(O)=C(O)C=C3)[C@H](O)[C@@H](O)[C@@H]2O)[C@H](O)[C@H](O)[C@H]1O,InChIKey=IKGXIBQEEMLURG-NVPNHPEKSA-N,14.58,-3,NaN,NaN,NaN,NaN,NaN,NaN,NaN,NaN,NaN,NaN,NaN,NaN
Cyclic AMP,HMDB00058,4.545,1,dd,21.05 4.64,0.0599,-1,NC1=NC=NC2=C1N=CN2[C@@H]1O[C@@H]2COP(O)(=O)O[C@H]2[C@H]1O,InChIKey=IVOMOUWHDPKRLL-KQYNXXCUSA-N,1.86,-0.55,0.0085,0.3,NaN,NaN,0.02125,NaN,NaN,NaN,NaN,NaN,NaN,NaN
PC(16:0/16:0),HMDB00564,4.545,1,dd,11.99 2.84,0.0074,0,CCCCCCCCCCCCCCCC(=O)OC[C@H](COP([O-])(=O)OCC[N+](C)(C)C)OC(=O)CCCCCCCCCCCCCCC,InChIKey=KILNVBDSWZSGLL-KXQOOQHDSA-N,4.6,-2.9,584.557,NaN,NaN,NaN,NaN,NaN,NaN,NaN,NaN,NaN,NaN,NaN
NAD,HMDB00902,4.552,1,m,NA,0.084,-1,NC(=O)C1=C[N+](=CC=C1)[C@@H]1O[C@H](COP(O)(=O)OP(O)(=O)OC[C@H]2O[C@H]([C@H](O)[C@@H]2O)N2C=NC3=C2N=CN=C3N)[C@@H](O)[C@H]1O,InChIKey=BAWFJGJZGIEFAR-NNYOXOHSSA-O,4.36,11.1,24,NaN,NaN,NaN,NaN,NaN,NaN,NaN,NaN,NaN,NaN,NaN
Levofloxacin,HMDB01929,4.555,1,dd,NA,0.0415,-1,C[C@H]1COC2=C(N3CCN(C)CC3)C(F)=CC3=C2N1C=C(C(O)=O)C3=O,InChIKey=GSDSWSVVBLHKDQ-JTQLQIEISA-N,3.51,-6.3,0.135,NaN,NaN,NaN,NaN,NaN,NaN,NaN,NaN,NaN,NaN,NaN
Gamma-Glutamylcysteine,HMDB01049,4.555,1,m,NA,0.0778,-1,N[C@@H](CCC(=O)N[C@@H](CS)C(O)=O)C(O)=O,InChIKey=RITKHVBHSGLULN-WHFBIAKZSA-N,1.78,-3.6,25,NaN,NaN,NaN,NaN,NaN,NaN,NaN,NaN,NaN,NaN,NaN
2-Phenylaminoadenosine,HMDB01069,4.565,1,q,NA,0.0085,0,NC1=C2N=CN(C3OC(CO)C(O)C3O)C2=NC(NC2=CC=CC=C2)=N1,InChIKey=SCNILGOVBBRMBK-UHFFFAOYSA-N,0.9,7.43,NA,NA,NA,NA,NA,NA,NA,NA,NA,NA,NA,NA
dCMP,HMDB01202,4.565,1,m,NA,0.0669,-2,NC1=NC(=O)N(C=C1)[C@H]1C[C@H](O)[C@@H](COP(O)(O)=O)O1,InChIKey=NCMVOABPESMRCP-SHYZEUOFSA-N,1.85,9.4,NA,NA,NA,NA,NA,NA,NA,NA,NA,NA,NA,NA
D-threo-Isocitric acid,HMDB01874,4.565,1,d,2.97,0.8871,-3,O[C@H]([C@H](CC(O)=O)C(O)=O)C(O)=O,InChIKey=ODBLHEXUDAPZAU-ZAFYKAAXSA-N,2.67,4.95,NaN,NaN,NaN,NaN,NaN,NaN,NaN,NaN,NaN,NaN,NaN,NaN
Mevalonolactone,HMDB06024,4.565,1,m,NA,0.0798,0,C[C@]1(O)CCOC(=O)C1,InChIKey=JYVXNLLUYHCIIH-LURJTMIESA-N,1.86,-3,NaN,NaN,NaN,NaN,NaN,NaN,NaN,NaN,NaN,NaN,NaN,NaN
Heparan sulfate,HMDB00693,4.575,2,m,NA,0.0344,NA,NA,NA,-2,9.5,0.5,NaN,NaN,NaN,NaN,NaN,NaN,NaN,NaN,NaN,NaN,NaN
Allantoin,HMDB00462,4.575,1,br. s.,NA,0.0081,0,NC(=O)NC1NC(=O)NC1=O,InChIKey=POJWUDADGALRAB-UHFFFAOYSA-N,2.35,-3.8,2.1,10.65666667,NaN,18.9,9.3,NaN,NaN,NaN,NaN,NaN,NaN,NaN
Delta-Hexanolactone,HMDB00453,4.575,1,m,NA,0.0363,0,CC1CCCC(=O)O1,InChIKey=RZTOWFMDBDPERY-UHFFFAOYSA-N,1.86,5.14,NA,NA,NA,NA,NA,NA,NA,NA,NA,NA,NA,NA
NADP,HMDB00217,4.575,1,m,NA,0.194,-3,NC(=O)C1=C[N+](=CC=C1)[C@@H]1O[C@H](CO[P@](O)(=O)O[P@](O)(=O)OC[C@H]2O[C@H]([C@H](OP(O)(O)=O)[C@@H]2O)N2C=NC3=C(N)N=CN=C23)[C@@H](O)[C@H]1O,InChIKey=XJLXINKUBYWONI-NNYOXOHSSA-O,4.48,-2.8,NA,NA,NA,NA,NA,NA,NA,NA,NA,NA,NA,NA
Salicin,HMDB03546,4.575,0,d,NA,0.0368,0,OC[C@H]1O[C@@H](OC2=C(CO)C=CC=C2)[C@H](O)[C@@H](O)[C@@H]1O,InChIKey=NGFMICBWJRZIBI-UJPOAAIJSA-N,14.58,-3,NA,NA,NA,NA,NA,NA,NA,NA,NA,NA,NA,NA
Catechin,HMDB02780,4.575,1,d,7.54,0.1521,0,O[C@H]1CC2=C(O)C=C(O)C=C2O[C@@H]1C1=CC(O)=C(O)C=C1,InChIKey=PFTAWBLQPZVEMU-DZGCQCFKSA-N,0.83,4.95,NaN,NaN,NaN,NaN,NaN,NaN,NaN,NaN,NaN,NaN,NaN,NaN
L-Fucose,HMDB00174,4.575,6,d,7.91,0.2115,0,C[C@@H]1OC(O)[C@@H](O)[C@H](O)[C@@H]1O,InChIKey=SHZGCJCMOBCMKK-DHVFOXMCSA-N,14.12,9.39,NaN,9.6,NaN,112.06,NaN,NaN,NaN,NaN,NaN,NaN,NaN,NaN
Aminopterin,HMDB01833,4.579,2,s,NA,0.0226,-2,NC1=NC2=C(N=C(CNC3=CC=C(C=C3)C(=O)NC(CCC(O)=O)C(O)=O)C=N2)C(N)=N1,InChIKey=TVZGACDUOSZQKY-UHFFFAOYSA-N,9.51,-3.5,NA,NA,NA,NA,NA,NA,NA,NA,NA,NA,NA,NA
Coenzyme A,HMDB01423,4.585,1,br. s.,NA,0.1609,-4,CC(C)(COP(O)(=O)OP(O)(=O)OC[C@H]1O[C@H]([C@H](O)[C@@H]1OP(O)(O)=O)N1C=NC2=C1N=CN=C2N)C(O)C(=O)NCCC(=O)NCCS,InChIKey=RGJOEKWQDUBAIZ-DRCCLKDXSA-N,16.92,3.22,NA,NA,NA,NA,NA,NA,NA,NA,NA,NA,NA,NA
ADP,HMDB01341,4.585,1,m,NA,0.0514,-2,NC1=NC=NC2=C1N=CN2[C@@H]1O[C@H](COP(O)(=O)OP(O)(O)=O)[C@@H](O)[C@H]1O,InChIKey=XTWYTFMLZFPYCI-KQYNXXCUSA-N,3.24,-2.8,NaN,NaN,NaN,NaN,1.9,NaN,NaN,NaN,NaN,NaN,NaN,NaN
D-Xylose,HMDB00098,4.585,1,d,7.9,0.3854,0,O[C@@H]1COC(O)[C@H](O)[C@H]1O,InChIKey=SRBFZHDQGSBBOR-IOVATXLUSA-N,14.58,-3,NaN,5.26,NaN,NaN,NaN,NaN,NaN,NaN,NaN,NaN,NaN,NaN
Pseudoephedrine,HMDB01943,4.585,5,d,8.74,0.0991,1,CN[C@@H](C)[C@@H](O)C1=CC=CC=C1,InChIKey=KWGRBVOPPLSCSI-WCBMZHEXSA-N,1.79,-0.1,NaN,NaN,NaN,NaN,NaN,NaN,NaN,NaN,NaN,NaN,NaN,NaN
Galacturonic acid,HMDB02545,4.595,11,d,7.92,0.9125,-1,O[C@@H](C=O)[C@@H](O)[C@@H](O)[C@H](O)C(O)=O,InChIKey=IAJILQKETJEXLJ-RSJOWCBRSA-N,14.58,-3,NaN,NaN,NaN,NaN,NaN,NaN,NaN,NaN,NaN,NaN,NaN,NaN
Guanosine triphosphate,HMDB01273,4.595,1,dd,NA,0.0304,-3,NC1=NC2=C(N=CN2[C@@H]2O[C@H](COP(O)(=O)OP(O)(=O)OP(O)(O)=O)[C@@H](O)[C@H]2O)C(=O)N1,InChIKey=XKMLYUALXHKNFT-UUOKFMHZSA-N,12.43,-1.2,NaN,NaN,NaN,NaN,1.83,NaN,NaN,NaN,NaN,NaN,NaN,NaN
Tetrahydrocortisone,HMDB00903,4.595,0,d,NA,0.0027,0,[H][C@@]12CC[C@](O)(C(=O)CO)[C@@]1(C)CC(=O)[C@@]1([H])[C@@]2([H])CC[C@@]2([H])C[C@@H](O)CC[C@]12C,InChIKey=SYGWGHVTLUBCEM-SDYDLROXSA-N,15.56,10.9,NaN,0.51,NaN,NaN,NaN,NaN,NaN,NaN,NaN,NaN,NaN,NaN
Guanosine diphosphate,HMDB01201,4.598,1,m,NA,0.0188,-2,NC1=NC2=C(N=CN2[C@@H]2O[C@H](COP(O)(=O)OP(O)(O)=O)[C@@H](O)[C@H]2O)C(=O)N1,InChIKey=QGWNDRXFNXRZMB-UUOKFMHZSA-N,12.45,8.87,18,NaN,NaN,NaN,1.86,NaN,NaN,NaN,NaN,NaN,NaN,NaN
CE(16:1(9Z)),HMDB00658,4.605,0,m,NA,0.0028,0,CCCCCC\C=C/CCCCCCCC(=O)OC1CC[C@@]2(C)C(=CCC3C4CC[C@H]([C@H](C)CCCC(C)C)[C@@]4(C)CCC23)C1,InChIKey=HODJWNWCVNUPAQ-FSAOOAOSSA-N,1.87,10,NaN,NaN,NaN,NaN,NaN,NaN,NaN,NaN,NaN,NaN,NaN,NaN
Dehydroascorbic acid,HMDB01264,4.605,1,m,NA,0.1851,-1,[H][C@@]1(OC(=O)C(=O)C1=O)[C@H](O)CO,InChIKey=SBJKKFFYIZUCET-DUZGATOHSA-N,11.63,9.37,NaN,NaN,NaN,NaN,NaN,NaN,NaN,NaN,NaN,NaN,NaN,NaN
Sumiki's acid,HMDB02432,4.605,44,s,NA,1,-1,OCC1=CC=C(O1)C(O)=O,InChIKey=PCSKKIUURRTAEM-UHFFFAOYSA-N,17.11,-6.6,NaN,NaN,NaN,NaN,NaN,NaN,NaN,NaN,NaN,NaN,NaN,NaN