Metabolite,HMDB Name,Shift (ppm),Hs,Type,J (Hz),Height,Physiological Charge,SMILES,InChlKey,pKa (Strongest Acidic),pKa (Strongest Basic),Blood,Urine,Feces,Saliva,Cerebrospinal Fluid (CSF),Amniotic Fluid,Aqueous Humour,Ascites Fluid,Breast Milk,Lymph,Sweat,Tears
Menadione,HMDB01892,8.025,1,m,NA,0.1818,0,CC1=CC(=O)C2=CC=CC=C2C1=O,InChIKey=MJVAVZPDRWSRRC-UHFFFAOYSA-N,16.84,-3.7,NaN,NaN,NaN,NaN,NaN,NaN,NaN,NaN,NaN,NaN,NaN,NaN
3-Methylhistamine,HMDB01861,8.035,1,s,NA,0.088,2,CN1C=NC=C1CCN,InChIKey=CPAGZVLINCPJEH-UHFFFAOYSA-N,3.24,4.95,NaN,NaN,NaN,NaN,NaN,NaN,NaN,NaN,NaN,NaN,NaN,NaN
3-Methylxanthine,HMDB01886,8.035,1,s,NA,0.0258,0,CN1C2=C(NC=N2)C(=O)NC1=O,InChIKey=GMSNIKWWOQHZGF-UHFFFAOYSA-N,2.41,9.5,NaN,4,NaN,NaN,NaN,NaN,NaN,NaN,NaN,NaN,NaN,NaN
Ondansetron,HMDB05035,8.045,1,ddd,NA,0.0155,1,CN1C2=C(C3=CC=CC=C13)C(=O)C(CN1C=CN=C1C)CC2,InChIKey=FELGMEQIXOGIFQ-UHFFFAOYSA-N,1.87,10,NA,NA,NA,NA,NA,NA,NA,NA,NA,NA,NA,NA
Thiamine,HMDB00235,8.045,2,s,NA,0.3862,1,CC1=C(CCO)SC=[N+]1CC1=C(N)N=C(C)N=C1,InChIKey=JZRWCGZRTZMZEH-UHFFFAOYSA-N,4.66,-3,NaN,0.22,NaN,0.247,0.0735,NaN,NaN,NaN,NaN,NaN,NaN,NaN
dCMP,HMDB01202,8.055,1,d,7.59,0.2474,-2,NC1=NC(=O)N(C=C1)[C@H]1C[C@H](O)[C@@H](COP(O)(O)=O)O1,InChIKey=NCMVOABPESMRCP-SHYZEUOFSA-N,1.85,9.4,NA,NA,NA,NA,NA,NA,NA,NA,NA,NA,NA,NA
L(-)-Nicotine pestanal,HMDB01934,8.065,1,dt,8.06 1.77,0.0882,1,CN1CCC[C@H]1C1=CN=CC=C1,InChIKey=SNICXCGAKADSCV-JTQLQIEISA-N,1.87,10,0.745,NaN,NaN,NaN,NaN,NaN,NaN,NaN,NaN,NaN,NaN,NaN
6-Methyladenine,HMDB02099,8.075,1,s,NA,0.1347,0,CNC1=NC=NC2=C1NC=N2,InChIKey=CKOMXBHMKXXTNW-UHFFFAOYSA-N,4.33,-3.6,NA,NA,NA,NA,NA,NA,NA,NA,NA,NA,NA,NA
Indole-3-carboxylic acid,HMDB03320,8.075,8,m,NA,0.0244,-1,OC(=O)C1=CNC2=CC=CC=C12,InChIKey=KMAKOBLIOCQGJP-UHFFFAOYSA-N,14.58,-3,NA,NA,NA,NA,NA,NA,NA,NA,NA,NA,NA,NA
3-Methyladenine,HMDB11600,8.075,1,s,NA,0.3121,0,CN1C=NC(N)=C2N=CN=C12,InChIKey=FSASIHFSFGAIJM-UHFFFAOYSA-N,1.86,-3,NaN,0.86,NaN,NaN,NaN,NaN,NaN,NaN,NaN,NaN,NaN,NaN
Vinylacetylglycine,HMDB00894,8.085,1,br. s.,NA,0.1898,-1,OC(=O)CNC(=O)CC=C,InChIKey=UKISAGFGRDHYFO-UHFFFAOYSA-N,1.86,-3,NA,NA,NA,NA,NA,NA,NA,NA,NA,NA,NA,NA
6-Hydroxynicotinic acid,HMDB02658,8.085,1,m,NA,1,-1,OC(=O)C1=CN=C(O)C=C1,InChIKey=BLHCMGRVFXRYRN-UHFFFAOYSA-N,16.07,5,NaN,NaN,NaN,NaN,NaN,NaN,NaN,NaN,NaN,NaN,NaN,NaN
p-Anisic acid,HMDB01101,8.085,2,d,9.02,0.0541,-1,COC1=CC=C(C=C1)C(O)=O,InChIKey=ZEYHEAKUIGZSGI-UHFFFAOYSA-N,3.92,4.11,NaN,NaN,NaN,NaN,NaN,NaN,NaN,NaN,NaN,NaN,NaN,NaN
Trigonelline,HMDB00875,8.087,1,m,NA,0.1317,0,C[N+]1=CC(=CC=C1)C([O-])=O,InChIKey=WWNNZCOKKKDOPX-UHFFFAOYSA-N,1.93,-8.2,NaN,NaN,NaN,NaN,NaN,NaN,NaN,NaN,NaN,NaN,NaN,NaN
Carnosine,HMDB00033,8.095,1,s,NA,0.4412,0,NCCC(=O)N[C@@H](CC1=CN=CN1)C(O)=O,InChIKey=CQOVPNPJLQNMDC-ZETCQYMHSA-N,1.86,8.86,6.54,1.84,NaN,NaN,NaN,NaN,NaN,NaN,NaN,NaN,NaN,NaN
Chalcone,HMDB03066,8.095,2,m,NA,0.116,0,O=C(\C=C\C1=CC=CC=C1)C1=CC=CC=C1,InChIKey=DQFBYFPFKXHELB-VAWYXSNFSA-N,1.86,-0.52,NA,NA,NA,NA,NA,NA,NA,NA,NA,NA,NA,NA
Cytidine monophosphate,HMDB00095,8.095,1,d,7.57,1,-2,NC1=NC(=O)N(C=C1)[C@@H]1O[C@H](COP(O)(O)=O)[C@@H](O)[C@H]1O,InChIKey=IERHLVCPSMICTF-XVFCMESISA-N,11.62,-3.2,NaN,NaN,NaN,NaN,NaN,NaN,NaN,NaN,NaN,NaN,NaN,NaN
Kaempferol,HMDB05801,8.095,2,m,NA,0.1838,-1,OC1=CC=C(C=C1)C1=C(O)C(=O)C2=C(O1)C=C(O)C=C2O,InChIKey=IYRMWMYZSQPJKC-UHFFFAOYSA-N,1.87,10,NaN,NaN,NaN,NaN,NaN,NaN,NaN,NaN,NaN,NaN,NaN,NaN
Uridine 5'-monophosphate,HMDB00288,8.105,1,d,8.09,0.7852,-2,O[C@H]1[C@@H](O)[C@@H](O[C@@H]1COP(O)(O)=O)N1C=CC(=O)NC1=O,InChIKey=DJJCXFVJDGTHFX-XVFCMESISA-N,4.67,2.02,184,NaN,NaN,0.21,NaN,NaN,NaN,NaN,NaN,NaN,NaN,NaN
2-Phenylaminoadenosine,HMDB01069,8.105,1,s,NA,0.0592,0,NC1=C2N=CN(C3OC(CO)C(O)C3O)C2=NC(NC2=CC=CC=C2)=N1,InChIKey=SCNILGOVBBRMBK-UHFFFAOYSA-N,0.9,7.43,NA,NA,NA,NA,NA,NA,NA,NA,NA,NA,NA,NA
dGTP,HMDB01440,8.105,1,s,NA,0.8979,-3,NC1=NC2=C(N=CN2[C@H]2C[C@H](O)[C@@H](COP(O)(=O)OP(O)(=O)OP(O)(O)=O)O2)C(=O)N1,InChIKey=HAAZLUGHYHWQIW-KVQBGUIXSA-N,2.23,-0.28,NA,NA,NA,NA,NA,NA,NA,NA,NA,NA,NA,NA
6-Hydroxynicotinic acid,HMDB02658,8.105,1,d,2.53,0.6546,-1,OC(=O)C1=CN=C(O)C=C1,InChIKey=BLHCMGRVFXRYRN-UHFFFAOYSA-N,16.07,5,NaN,NaN,NaN,NaN,NaN,NaN,NaN,NaN,NaN,NaN,NaN,NaN
N-Formyl-L-methionine,HMDB01015,8.105,1,s,NA,0.0921,-1,CSCC[C@@H](NC=O)C(O)=O,InChIKey=PYUSHNKNPOHWEZ-RXMQYKEDSA-N,1.23,-0.95,NaN,NaN,NaN,NaN,NaN,NaN,NaN,NaN,NaN,NaN,NaN,NaN
7-Methyladenine,HMDB11614,8.115,1,s,NA,0.1809,0,CN1C=NC2=NC=NC(N)=C12,InChIKey=HCGHYQLFMPXSDU-UHFFFAOYSA-N,1.86,-3,NA,NA,NA,NA,NA,NA,NA,NA,NA,NA,NA,NA
Berberine,HMDB03409,8.115,1,d,9.08,0.1267,1,COC1=C(OC)C2=C[N+]3=C(C=C2C=C1)C1=CC2=C(OCO2)C=C1CC3,InChIKey=YBHILYKTIRIUTE-UHFFFAOYSA-N,14.58,-3,NaN,NaN,NaN,NaN,NaN,NaN,NaN,NaN,NaN,NaN,NaN,NaN
Quinaldic acid,HMDB00842,8.12,1,d,8.51,0.8374,-1,OC(=O)C1=NC2=CC=CC=C2C=C1,InChIKey=LOAUVZALPPNFOQ-UHFFFAOYSA-N,1.91,-7.2,NA,NA,NA,NA,NA,NA,NA,NA,NA,NA,NA,NA
Adenine,HMDB00034,8.125,2,s,NA,1,0,NC1=NC=NC2=C1NC=N2,InChIKey=GFFGJBXGBJISGV-UHFFFAOYSA-N,12.45,12.39,NA,0.65,NaN,NaN,0,NaN,NaN,NaN,NaN,NaN,NaN,NaN
Omeprazole,HMDB01913,8.125,1,s,NA,0.0746,0,COC1=CC2=C(C=C1)N=C(N2)S(=O)CC1=NC=C(C)C(OC)=C1C,InChIKey=SUBDBMMJDZJVOS-UHFFFAOYSA-N,3.26,-3.8,NaN,NaN,NaN,NaN,NaN,NaN,NaN,NaN,NaN,NaN,NaN,NaN
Adenosine,HMDB00050,8.132,1,s,NA,1,0,NC1=NC=NC2=C1N=CN2[C@@H]1O[C@H](CO)[C@@H](O)[C@H]1O,InChIKey=OIRDTQYFTABQOQ-KQYNXXCUSA-N,1.86,-6.7,1.3435,0.335,NaN,0.24,0,NaN,NaN,NaN,NaN,NaN,NaN,NaN
Guanosine diphosphate,HMDB01201,8.134,1,s,NA,1,-2,NC1=NC2=C(N=CN2[C@@H]2O[C@H](COP(O)(=O)OP(O)(O)=O)[C@@H](O)[C@H]2O)C(=O)N1,InChIKey=QGWNDRXFNXRZMB-UUOKFMHZSA-N,12.45,8.87,18,NaN,NaN,NaN,1.86,NaN,NaN,NaN,NaN,NaN,NaN,NaN
Adenine,HMDB00034,8.135,2,s,NA,1,0,NC1=NC=NC2=C1NC=N2,InChIKey=GFFGJBXGBJISGV-UHFFFAOYSA-N,12.45,12.39,NA,0.65,NaN,NaN,0,NaN,NaN,NaN,NaN,NaN,NaN,NaN
4-Nitrophenol,HMDB01232,8.135,2,m,5.50 5.23 0.88,0.8263,0,OC1=CC=C(C=C1)[N+]([O-])=O,InChIKey=BTJIUGUIPKRLHP-UHFFFAOYSA-N,10.76,-6,NaN,NaN,NaN,NaN,NaN,NaN,NaN,NaN,NaN,NaN,NaN,NaN
Guanosine triphosphate,HMDB01273,8.145,1,s,NA,0.2955,-3,NC1=NC2=C(N=CN2[C@@H]2O[C@H](COP(O)(=O)OP(O)(=O)OP(O)(O)=O)[C@@H](O)[C@H]2O)C(=O)N1,InChIKey=XKMLYUALXHKNFT-UUOKFMHZSA-N,12.43,-1.2,NaN,NaN,NaN,NaN,1.83,NaN,NaN,NaN,NaN,NaN,NaN,NaN
Guanosine monophosphate,HMDB01397,8.152,1,s,NA,0.0116,-2,NC1=NC2=C(N=CN2[C@@H]2O[C@H](COP(O)(O)=O)[C@@H](O)[C@H]2O)C(=O)N1,InChIKey=RQFCJASXJCIDSX-UUOKFMHZSA-N,4.27,0.53,NaN,NaN,NaN,NaN,NaN,NaN,NaN,NaN,NaN,NaN,NaN,NaN
1-Methyladenosine,HMDB03331,8.155,0,s,NA,0.0508,0,CN1C=NC2=C(N=CN2[C@@H]2O[C@H](CO)[C@@H](O)[C@H]2O)C1=N,InChIKey=GFYLSDSUCHVORB-IOSLPCCCSA-N,14.58,-3,0.1,8.716666667,NaN,NaN,NaN,NaN,NaN,NaN,NaN,NaN,NaN,NaN
NAD,HMDB00902,8.157,1,s,NA,0.9935,-1,NC(=O)C1=C[N+](=CC=C1)[C@@H]1O[C@H](COP(O)(=O)OP(O)(=O)OC[C@H]2O[C@H]([C@H](O)[C@@H]2O)N2C=NC3=C2N=CN=C3N)[C@@H](O)[C@H]1O,InChIKey=BAWFJGJZGIEFAR-NNYOXOHSSA-O,4.36,11.1,24,NaN,NaN,NaN,NaN,NaN,NaN,NaN,NaN,NaN,NaN,NaN
S-Adenosylhomocysteine,HMDB00939,8.175,1,s,NA,0.7738,0,N[C@@H](CCSC[C@H]1O[C@H]([C@H](O)[C@@H]1O)N1C=NC2=C(N)N=CN=C12)C(O)=O,InChIKey=ZJUKTBDSGOFHSH-WFMPWKQPSA-N,9.43,1.41,NaN,NaN,NaN,NaN,0.01,NaN,NaN,NaN,NaN,NaN,NaN,NaN
Hypoxanthine,HMDB00157,8.185,1,s,NA,0.2827,0,OC1=NC=NC2=C1NC=N2,InChIKey=FDGQSTZJBFJUBT-UHFFFAOYSA-N,1.21,-9.6,16.69666667,3.485,NaN,28.15,3.87,NaN,NaN,NaN,NaN,NaN,NaN,NaN
N-Acetyl-L-methionine,HMDB11745,8.185,9,d,6.45,0.028,-1,CSCCC(NC(C)=O)C(O)=O,InChIKey=XUYPXLNMDZIRQH-UHFFFAOYSA-N,1.86,-6.7,NaN,NaN,NaN,NaN,NaN,NaN,NaN,NaN,NaN,NaN,NaN,NaN
1-Methylnicotinamide,HMDB00699,8.194,1,t,7.1,0.4215,1,C[N+]1=CC=CC(=C1)C(N)=O,InChIKey=LDHMAVIPBRSVRG-UHFFFAOYSA-O,4.22,0.02,0.43,4.3025,NaN,NaN,NaN,NaN,NaN,NaN,NaN,NaN,NaN,NaN
7-Methyladenine,HMDB11614,8.195,1,s,NA,0.1891,0,CN1C=NC2=NC=NC(N)=C12,InChIKey=HCGHYQLFMPXSDU-UHFFFAOYSA-N,1.86,-3,NA,NA,NA,NA,NA,NA,NA,NA,NA,NA,NA,NA
Lansoprazole,HMDB05008,8.195,1,ddd,NA,0.0451,0,CC1=C(OCC(F)(F)F)C=CN=C1CS(=O)C1=NC2=CC=CC=C2N1,InChIKey=MJIHNNLFOKEZEW-UHFFFAOYSA-N,1.87,10,NA,NA,NA,NA,NA,NA,NA,NA,NA,NA,NA,NA
Deoxyadenosine,HMDB00101,8.195,1,s,NA,1,0,NC1=NC=NC2=C1N=CN2[C@H]1C[C@H](O)[C@@H](CO)O1,InChIKey=OLXZPDWKRNYJJZ-RRKCRQDMSA-N,1.86,-6.7,NaN,0.22,NaN,NaN,NaN,NaN,NaN,NaN,NaN,NaN,NaN,NaN
Imidazole,HMDB01525,8.195,1,s,NA,0.3947,0,N1C=CN=C1,InChIKey=RAXXELZNTBOGNW-UHFFFAOYSA-N,4.95,-0.3,NaN,NaN,NaN,NaN,NaN,NaN,NaN,NaN,NaN,NaN,NaN,NaN
Inosine,HMDB00195,8.202,1,s,NA,1,-1,OC[C@H]1O[C@H]([C@H](O)[C@@H]1O)N1C=NC2=C1N=CNC2=O,InChIKey=UGQMRVRMYYASKQ-KQYNXXCUSA-N,1.73,9.73,1.3875,0.67,NaN,0.37,0.64,NaN,NaN,NaN,NaN,NaN,NaN,NaN
6-Methyladenine,HMDB02099,8.205,1,br. s.,NA,NA,0,CNC1=NC=NC2=C1NC=N2,InChIKey=CKOMXBHMKXXTNW-UHFFFAOYSA-N,4.33,-3.6,NA,NA,NA,NA,NA,NA,NA,NA,NA,NA,NA,NA
Guanosine monophosphate,HMDB01397,8.211,1,s,NA,0.0446,-2,NC1=NC2=C(N=CN2[C@@H]2O[C@H](COP(O)(O)=O)[C@@H](O)[C@H]2O)C(=O)N1,InChIKey=RQFCJASXJCIDSX-UUOKFMHZSA-N,4.27,0.53,NaN,NaN,NaN,NaN,NaN,NaN,NaN,NaN,NaN,NaN,NaN,NaN
Hypoxanthine,HMDB00157,8.215,1,s,NA,0.1805,0,OC1=NC=NC2=C1NC=N2,InChIKey=FDGQSTZJBFJUBT-UHFFFAOYSA-N,1.21,-9.6,16.69666667,3.485,NaN,28.15,3.87,NaN,NaN,NaN,NaN,NaN,NaN,NaN
N-Methylnicotinamide,HMDB03152,8.215,1,d,6.44,0.0749,0,CNC(=O)C1=CN=CC=C1,InChIKey=ZYVXHFWBYUDDBM-UHFFFAOYSA-N,14.58,-3,NaN,NaN,NaN,NaN,NaN,NaN,NaN,NaN,NaN,NaN,NaN,NaN
NAD,HMDB00902,8.222,1,m,NA,0.2763,-1,NC(=O)C1=C[N+](=CC=C1)[C@@H]1O[C@H](COP(O)(=O)OP(O)(=O)OC[C@H]2O[C@H]([C@H](O)[C@@H]2O)N2C=NC3=C2N=CN=C3N)[C@@H](O)[C@H]1O,InChIKey=BAWFJGJZGIEFAR-NNYOXOHSSA-O,4.36,11.1,24,NaN,NaN,NaN,NaN,NaN,NaN,NaN,NaN,NaN,NaN,NaN
Inosinic acid,HMDB00175,8.225,1,s,NA,1,-2,O[C@@H]1[C@@H](COP(O)(O)=O)O[C@H]([C@@H]1O)N1C=NC2=C1N=CNC2=O,InChIKey=GRSZFWQUAKGDAV-KQYNXXCUSA-N,18.2,-3,63,NaN,NaN,NaN,3.19,NaN,NaN,NaN,NaN,NaN,NaN,NaN
NADP,HMDB00217,8.225,2,s,NA,1,-3,NC(=O)C1=C[N+](=CC=C1)[C@@H]1O[C@H](CO[P@](O)(=O)O[P@](O)(=O)OC[C@H]2O[C@H]([C@H](OP(O)(O)=O)[C@@H]2O)N2C=NC3=C(N)N=CN=C23)[C@@H](O)[C@H]1O,InChIKey=XJLXINKUBYWONI-NNYOXOHSSA-O,4.48,-2.8,NA,NA,NA,NA,NA,NA,NA,NA,NA,NA,NA,NA
Cyclic AMP,HMDB00058,8.235,1,s,NA,1,-1,NC1=NC=NC2=C1N=CN2[C@@H]1O[C@@H]2COP(O)(=O)O[C@H]2[C@H]1O,InChIKey=IVOMOUWHDPKRLL-KQYNXXCUSA-N,1.86,-0.55,0.0085,0.3,NaN,NaN,0.02125,NaN,NaN,NaN,NaN,NaN,NaN,NaN
Inosine triphosphate,HMDB00189,8.235,1,s,NA,1,-3,O[C@@H]1[C@@H](COP(O)(=O)OP(O)(=O)OP(O)(O)=O)O[C@H]([C@@H]1O)N1C=NC2=C1N=CN=C2O,InChIKey=HAEJPQIATWHALX-KQYNXXCUSA-N,1.51,-3.7,NA,NA,NA,NA,NA,NA,NA,NA,NA,NA,NA,NA
Deoxyinosine,HMDB00071,8.235,2,s,NA,0.7065,0,OC[C@H]1O[C@H](C[C@@H]1O)N1C=NC2=C1N=CN=C2O,InChIKey=VGONTNSXDCQUGY-RRKCRQDMSA-N,3.53,-4.9,NaN,NA,NaN,NaN,NaN,NaN,NaN,NaN,NaN,NaN,NaN,NaN
Adenosine monophosphate,HMDB00045,8.245,1,s,NA,0.9934,-2,NC1=NC=NC2=C1N=CN2[C@@H]1O[C@H](COP(O)(O)=O)[C@@H](O)[C@H]1O,InChIKey=UDMBCSSLTHHNCD-KQYNXXCUSA-N,3.5,-1.4,51,NaN,NaN,0.3,NA,NaN,NaN,NaN,NaN,NaN,NaN,NaN
Adenosine triphosphate,HMDB00538,8.254,1,s,NA,0.976,-3,NC1=NC=NC2=C1N=CN2[C@@H]1O[C@H](COP(O)(=O)OP(O)(=O)OP(O)(O)=O)[C@@H](O)[C@H]1O,InChIKey=ZKHQWZAMYRWXGA-KQYNXXCUSA-N,2.83,-0.58,2271,NaN,NaN,0.47,1.85,NaN,NaN,NaN,NaN,NaN,NaN,NaN
Niacinamide,HMDB01406,8.255,1,dd,7.98 1.61,0.6152,0,NC(=O)C1=CN=CC=C1,InChIKey=DFPAKSUCGFBDDF-UHFFFAOYSA-N,4.86,3.72,0.235,NaN,NaN,NaN,NaN,NaN,NaN,NaN,NaN,NaN,NaN,NaN
Adenosine phosphosulfate,HMDB01003,8.255,1,d,1.38,0.5003,-2,NC1=NC=NC2=C1N=CN2[C@@H]1O[C@H](COP(O)(=O)OS(O)(=O)=O)[C@@H](O)[C@H]1O,InChIKey=IRLPACMLTUPBCL-KQYNXXCUSA-N,1.77,-3.2,NA,NA,NA,NA,NA,NA,NA,NA,NA,NA,NA,NA
NADP,HMDB00217,8.255,2,dd,7.82 6.50,0.2648,-3,NC(=O)C1=C[N+](=CC=C1)[C@@H]1O[C@H](CO[P@](O)(=O)O[P@](O)(=O)OC[C@H]2O[C@H]([C@H](OP(O)(O)=O)[C@@H]2O)N2C=NC3=C(N)N=CN=C23)[C@@H](O)[C@H]1O,InChIKey=XJLXINKUBYWONI-NNYOXOHSSA-O,4.48,-2.8,NA,NA,NA,NA,NA,NA,NA,NA,NA,NA,NA,NA
Parathion,HMDB01355,8.255,2,d,NA,0.0181,0,CCOP(=S)(OCC)OC1=CC=C(C=C1)[N+]([O-])=O,InChIKey=LCCNCVORNKJIRZ-UHFFFAOYSA-N,10.71,9.71,NaN,NaN,NaN,NaN,NaN,NaN,NaN,NaN,NaN,NaN,NaN,NaN
Hydrochlorothiazide,HMDB01928,8.263,1,s,NA,0.2742,0,NS(=O)(=O)C1=C(Cl)C=C2NCNS(=O)(=O)C2=C1,InChIKey=JZUFKLXOESDKRF-UHFFFAOYSA-N,11.63,-4.5,NaN,NaN,NaN,NaN,NaN,NaN,NaN,NaN,NaN,NaN,NaN,NaN
1-Methyladenosine,HMDB03331,8.265,0,s,NA,0.1741,0,CN1C=NC2=C(N=CN2[C@@H]2O[C@H](CO)[C@@H](O)[C@H]2O)C1=N,InChIKey=GFYLSDSUCHVORB-IOSLPCCCSA-N,14.58,-3,0.1,8.716666667,NaN,NaN,NaN,NaN,NaN,NaN,NaN,NaN,NaN,NaN
Nicotinuric acid,HMDB03269,8.265,1,t,NA,0.21,-1,OC(=O)CNC(=O)C1=CN=CC=C1,InChIKey=ZBSGKPYXQINNGF-UHFFFAOYSA-N,14.58,-3,10,NaN,NaN,NaN,NaN,NaN,NaN,NaN,NaN,NaN,NaN,NaN
Coenzyme A,HMDB01423,8.265,1,s,NA,0.3567,-4,CC(C)(COP(O)(=O)OP(O)(=O)OC[C@H]1O[C@H]([C@H](O)[C@@H]1OP(O)(O)=O)N1C=NC2=C1N=CN=C2N)C(O)C(=O)NCCC(=O)NCCS,InChIKey=RGJOEKWQDUBAIZ-DRCCLKDXSA-N,16.92,3.22,NA,NA,NA,NA,NA,NA,NA,NA,NA,NA,NA,NA
Flavone,HMDB03075,8.265,1,dd,7.95 1.29,0.1981,0,O=C1C=C(OC2=CC=CC=C12)C1=CC=CC=C1,InChIKey=VHBFFQKBGNRLFZ-UHFFFAOYSA-N,1.86,-0.52,NA,NA,NA,NA,NA,NA,NA,NA,NA,NA,NA,NA
Adenylsuccinic acid,HMDB00536,8.275,1,s,NA,0.0033,-4,O[C@@H]1[C@@H](COP(O)(O)=O)O[C@H]([C@@H]1O)N1C=NC2=C1N=CN=C2NC(CC(O)=O)C(O)=O,InChIKey=OFBHPPMPBOJXRT-DPXQIYNJSA-N,1.86,-3,NA,NA,NA,NA,NA,NA,NA,NA,NA,NA,NA,NA
Deoxyadenosine triphosphate,HMDB01532,8.275,1,s,NA,0.1632,-3,NC1=NC=NC2=C1N=CN2[C@H]1C[C@H](O)[C@@H](COP(O)(=O)OP(O)(=O)OP(O)(O)=O)O1,InChIKey=SUYVUBYJARFZHO-RRKCRQDMSA-N,9.06,-4.2,NA,NA,NA,NA,NA,NA,NA,NA,NA,NA,NA,NA
Adenosine 3'.5'-diphosphate,HMDB00061,8.275,1,s,NA,0.5158,-4,NC1=NC=NC2=C1N=CN2[C@@H]1O[C@H](COP(O)(O)=O)[C@@H](OP(O)(O)=O)[C@H]1O,InChIKey=WHTCPDAXWFLDIH-KQYNXXCUSA-N,9.07,4.95,NaN,NaN,NaN,NaN,NaN,NaN,NaN,NaN,NaN,NaN,NaN,NaN
1-Methyladenine,HMDB11599,8.295,1,s,NA,0.2857,0,CN1C=NC2=NC=NC2=C1N,InChIKey=HPZMWTNATZPBIH-UHFFFAOYSA-N,1.86,-3,NaN,0.1,NaN,NaN,NaN,NaN,NaN,NaN,NaN,NaN,NaN,NaN
3-Methyladenine,HMDB11600,8.295,1,s,NA,0.1898,0,CN1C=NC(N)=C2N=CN=C12,InChIKey=FSASIHFSFGAIJM-UHFFFAOYSA-N,1.86,-3,NaN,0.86,NaN,NaN,NaN,NaN,NaN,NaN,NaN,NaN,NaN,NaN
Adenosine,HMDB00050,8.296,1,s,NA,0.9759,0,NC1=NC=NC2=C1N=CN2[C@@H]1O[C@H](CO)[C@@H](O)[C@H]1O,InChIKey=OIRDTQYFTABQOQ-KQYNXXCUSA-N,1.86,-6.7,1.3435,0.335,NaN,0.24,0,NaN,NaN,NaN,NaN,NaN,NaN,NaN
Anserine,HMDB00194,8.305,1,d,0.72,0.1524,0,CN1C=NC=C1C[C@H](NC(=O)CCN)C(O)=O,InChIKey=MYYIAHXIVFADCU-QMMMGPOBSA-N,0.9,-3.6,41,NA,NaN,NaN,NaN,NaN,NaN,NaN,NaN,NaN,NaN,NaN
ADP,HMDB01341,8.305,1,s,NA,0.1498,-2,NC1=NC=NC2=C1N=CN2[C@@H]1O[C@H](COP(O)(=O)OP(O)(O)=O)[C@@H](O)[C@H]1O,InChIKey=XTWYTFMLZFPYCI-KQYNXXCUSA-N,3.24,-2.8,NaN,NaN,NaN,NaN,1.9,NaN,NaN,NaN,NaN,NaN,NaN,NaN
Daidzein,HMDB03312,8.305,1,s,NA,1,-1,OC1=CC=C(C=C1)C1=COC2=C(C=CC(O)=C2)C1=O,InChIKey=ZQSIJRDFPHDXIC-UHFFFAOYSA-N,14.58,-3,NaN,4.11,NaN,NaN,NaN,NaN,NaN,NaN,NaN,NaN,NaN,NaN
Deoxyadenosine,HMDB00101,8.305,1,s,NA,0.9832,0,NC1=NC=NC2=C1N=CN2[C@H]1C[C@H](O)[C@@H](CO)O1,InChIKey=OLXZPDWKRNYJJZ-RRKCRQDMSA-N,1.86,-6.7,NaN,0.22,NaN,NaN,NaN,NaN,NaN,NaN,NaN,NaN,NaN,NaN
Propranolol,HMDB01849,8.305,1,m,NA,0.1336,1,CC(C)NCC(O)COC1=CC=CC2=CC=CC=C12,InChIKey=AQHHHDLHHXJYJD-UHFFFAOYSA-N,3.16,-4.2,NaN,NaN,NaN,NaN,NaN,NaN,NaN,NaN,NaN,NaN,NaN,NaN
FAD,HMDB01248,8.315,1,s,NA,0.4502,-3,CC1=CC2=C(C=C1C)N(C[C@H](O)[C@H](O)[C@H](O)COP(O)(=O)OP(O)(=O)OC[C@H]1O[C@H]([C@H](O)[C@@H]1O)N1C=NC3=C1N=CN=C3N)C1=NC(=O)NC(=O)C1=N2,InChIKey=VWWQXMAJTJZDQX-UYBVJOGSSA-N,10.59,-2.6,0.075,NaN,NaN,NaN,NaN,NaN,NaN,NaN,NaN,NaN,NaN,NaN
FADH,HMDB01197,8.315,1,s,NA,0.4502,-2,CC1=CC2=C(C=C1C)N(C[C@H](O)[C@H](O)[C@H](O)COP(O)(=O)OP(O)(=O)OC[C@H]1O[C@H]([C@H](O)[C@@H]1O)N1C=NC3=C1N=CN=C3N)C1=C(N2)C(=O)NC(=O)N1,InChIKey=YPZRHBJKEMOYQH-UYBVJOGSSA-N,3.63,-3.4,NA,NA,NA,NA,NA,NA,NA,NA,NA,NA,NA,NA
Inosine,HMDB00195,8.32,1,s,NA,0.8684,-1,OC[C@H]1O[C@H]([C@H](O)[C@@H]1O)N1C=NC2=C1N=CNC2=O,InChIKey=UGQMRVRMYYASKQ-KQYNXXCUSA-N,1.73,9.73,1.3875,0.67,NaN,0.37,0.64,NaN,NaN,NaN,NaN,NaN,NaN,NaN
1-Methylinosine,HMDB02721,8.325,1,s,NA,0.2827,0,CN1C=NC2=C(N=CN2[C@@H]2O[C@H](CO)[C@@H](O)[C@H]2O)C1=O,InChIKey=WJNGQIYEQLPJMN-IOSLPCCCSA-N,18.21,9.04,0.06345,1.13,NaN,NaN,NaN,NaN,NaN,NaN,NaN,NaN,NaN,NaN
Nicotinamide ribotide,HMDB00229,8.325,1,dd,7.87 6.44,0.3682,-1,NC(=O)C1=CC=C[N+](=C1)[C@@H]1O[C@H](COP(O)([O-])=O)[C@@H](O)[C@H]1O,InChIKey=DAYLJWODMCOQEW-TURQNECASA-N,14.55,-1,NaN,66.67,NaN,NaN,NaN,NaN,NaN,NaN,NaN,NaN,NaN,NaN
1-Methylinosine,HMDB02721,8.335,1,s,NA,0.2827,0,CN1C=NC2=C(N=CN2[C@@H]2O[C@H](CO)[C@@H](O)[C@H]2O)C1=O,InChIKey=WJNGQIYEQLPJMN-IOSLPCCCSA-N,18.21,9.04,0.06345,1.13,NaN,NaN,NaN,NaN,NaN,NaN,NaN,NaN,NaN,NaN
Deoxyinosine,HMDB00071,8.335,1,s,NA,0.6386,0,OC[C@H]1O[C@H](C[C@@H]1O)N1C=NC2=C1N=CN=C2O,InChIKey=VGONTNSXDCQUGY-RRKCRQDMSA-N,3.53,-4.9,NaN,NA,NaN,NaN,NaN,NaN,NaN,NaN,NaN,NaN,NaN,NaN
Loratadine,HMDB05000,8.335,1,dd,NA,0.0213,0,CCOC(=O)N1CCC(CC1)=C1C2=C(CCC3=CC=CN=C13)C=C(Cl)C=C2,InChIKey=JCCNYMKQOSZNPW-UHFFFAOYSA-N,1.87,10,NaN,NaN,NaN,NaN,NaN,NaN,NaN,NaN,NaN,NaN,NaN,NaN
Oxypurinol,HMDB00786,8.335,1,br. s.,NA,0.0259,0,O=C1NC2=C(C=NN2)C(=O)N1,InChIKey=HXNFUBHNUDHIGC-UHFFFAOYSA-N,-0.36,-4.7,NaN,NaN,NaN,NaN,NaN,NaN,NaN,NaN,NaN,NaN,NaN,NaN
Danazol,HMDB02835,8.345,1,s,NA,0.2589,0,[H][C@@]12CC[C@@](O)(C#C)[C@@]1(C)CC[C@@]1([H])[C@@]2([H])CCC2=CC3=C(C[C@]12C)C=NO3,InChIKey=POZRVZJJTULAOH-LHZXLZLDSA-N,2.89,-3.5,NA,NA,NA,NA,NA,NA,NA,NA,NA,NA,NA,NA
4-(Methylnitrosamino)-1-(3-pyridyl)-1-butanone,HMDB11603,8.345,2,m,NA,0.0909,0,CN(CCCC(=O)C1=CC=CN=C1)N=O,InChIKey=FLAQQSHRLBFIEZ-UHFFFAOYSA-N,1.86,-3,NaN,NaN,NaN,NaN,NaN,NaN,NaN,NaN,NaN,NaN,NaN,NaN
Paraxanthine,HMDB01860,8.355,1,s,NA,0.2109,0,CN1C=NC2=C1C(=O)N(C)C(=O)N2,InChIKey=QUNWUDVFRNGTCO-UHFFFAOYSA-N,11.3,8.36,10,2.5,NaN,NaN,NaN,NaN,NaN,NaN,NaN,NaN,NaN,NaN
Ethenodeoxyadenosine,HMDB01786,8.355,1,s,NA,1,0,OC[C@H]1O[C@H](C[C@@H]1O)N1C=NC2=C1N=CN1C=CN=C21,InChIKey=XQQIMTUYVDUWKJ-DJLDLDEBSA-N,7.67,4.94,NA,NA,NA,NA,NA,NA,NA,NA,NA,NA,NA,NA
Uridine diphosphate-N-acetylglucosamine,HMDB00290,8.356,1,d,NA,0.0636,-2,CC(=O)N[C@@H]1[C@@H](O)[C@H](O)[C@@H](CO)O[C@@H]1OP(O)(=O)OP(O)(=O)OC[C@H]1O[C@H]([C@H](O)[C@@H]1O)N1C=CC(=O)NC1=O,InChIKey=LFTYTUAZOPRMMI-CFRASDGPSA-N,4.67,-0.88,NaN,NaN,NaN,NaN,NaN,NaN,NaN,NaN,NaN,NaN,NaN,NaN
Pterin,HMDB00802,8.385,1,br. s.,NA,0.0629,0,NC1=NC2=NC=CN=C2C(=O)N1,InChIKey=HNXQXTQTPAJEJL-UHFFFAOYSA-N,0.83,-2.1,NA,NA,NA,NA,NA,NA,NA,NA,NA,NA,NA,NA
S-Adenosylhomocysteine,HMDB00939,8.385,1,s,NA,1,0,N[C@@H](CCSC[C@H]1O[C@H]([C@H](O)[C@@H]1O)N1C=NC2=C(N)N=CN=C12)C(O)=O,InChIKey=ZJUKTBDSGOFHSH-WFMPWKQPSA-N,9.43,1.41,NaN,NaN,NaN,NaN,0.01,NaN,NaN,NaN,NaN,NaN,NaN,NaN
1-Methyladenosine,HMDB03331,8.415,1,s,NA,0.3359,0,CN1C=NC2=C(N=CN2[C@@H]2O[C@H](CO)[C@@H](O)[C@H]2O)C1=N,InChIKey=GFYLSDSUCHVORB-IOSLPCCCSA-N,14.58,-3,0.1,8.716666667,NaN,NaN,NaN,NaN,NaN,NaN,NaN,NaN,NaN,NaN
1-Methyladenine,HMDB11599,8.415,1,s,NA,0.2287,0,CN1C=NC2=NC=NC2=C1N,InChIKey=HPZMWTNATZPBIH-UHFFFAOYSA-N,1.86,-3,NaN,0.1,NaN,NaN,NaN,NaN,NaN,NaN,NaN,NaN,NaN,NaN
3-Pyridylacetic acid,HMDB01538,8.415,1,br. s.,NA,0.2823,-1,OC(=O)CC1=CN=CC=C1,InChIKey=WGNUNYPERJMVRM-UHFFFAOYSA-N,12.11,-0.61,NaN,NaN,NaN,NaN,NaN,NaN,NaN,NaN,NaN,NaN,NaN,NaN
NAD,HMDB00902,8.421,1,s,NA,1,-1,NC(=O)C1=C[N+](=CC=C1)[C@@H]1O[C@H](COP(O)(=O)OP(O)(=O)OC[C@H]2O[C@H]([C@H](O)[C@@H]2O)N2C=NC3=C2N=CN=C3N)[C@@H](O)[C@H]1O,InChIKey=BAWFJGJZGIEFAR-NNYOXOHSSA-O,4.36,11.1,24,NaN,NaN,NaN,NaN,NaN,NaN,NaN,NaN,NaN,NaN,NaN
Anabasine,HMDB04350,8.435,1,dd,4.90 1.60,0.0608,1,C1CCC(NC1)C1=CN=CC=C1,InChIKey=MTXSIJUGVMTTMU-UHFFFAOYSA-N,1.86,-4.8,0.0031,4.4,NaN,NaN,NaN,NaN,NaN,NaN,NaN,NaN,NaN,NaN
Deoxyadenosine monophosphate,HMDB00905,8.435,2,m,NA,0.7137,-2,NC1=NC=NC2=C1N=CN2[C@H]1C[C@H](O)[C@@H](COP(O)(O)=O)O1,InChIKey=KHWCHTKSEGGWEX-RRKCRQDMSA-N,0.54,10.77,NA,NA,NA,NA,NA,NA,NA,NA,NA,NA,NA,NA
5'-Methylthioadenosine,HMDB01173,8.435,8,s,NA,0.1963,0,CSC[C@H]1O[C@H]([C@H](O)[C@@H]1O)N1C=NC2=C1N=CN=C2N,InChIKey=WUUGFSXJNOTRMR-IOSLPCCCSA-N,10.19,-3,NaN,NaN,NaN,NaN,NaN,NaN,NaN,NaN,NaN,NaN,NaN,NaN
Quinolinic acid,HMDB00232,8.455,2,dd,4.95,0.766,-2,OC(=O)C1=CC=CN=C1C(O)=O,InChIKey=GJAWHXHKYYXBSV-UHFFFAOYSA-N,4.65,-6.3,0.47,2.5,NaN,NaN,0.044,NaN,NaN,NaN,NaN,NaN,NaN,NaN
Quinolinic acid,HMDB00232,8.455,2,dd,1.61,0.766,-2,OC(=O)C1=CC=CN=C1C(O)=O,InChIKey=GJAWHXHKYYXBSV-UHFFFAOYSA-N,4.65,-6.3,0.47,2.5,NaN,NaN,0.044,NaN,NaN,NaN,NaN,NaN,NaN,NaN
Formic acid,HMDB00142,8.455,1,s,NA,1,-1,OC=O,InChIKey=BDAGIHXWWSANSR-UHFFFAOYSA-N,1.16,-7.1,32.8,NA,NaN,96.37,32,NaN,NaN,NaN,NaN,NaN,NaN,NaN