Metabolite,HMDB Name,Shift (ppm),Hs,Type,J (Hz),Height,Physiological Charge,SMILES,InChlKey,pKa (Strongest Acidic),pKa (Strongest Basic),Blood,Urine,Feces,Saliva,Cerebrospinal Fluid (CSF),Amniotic Fluid,Aqueous Humour,Ascites Fluid,Breast Milk,Lymph,Sweat,Tears
Prostaglandin E2,HMDB01220,5.495,1,dd,NA,0.0284,-1,CCCCC[C@H](O)\C=C\[C@H]1[C@H](O)CC(=O)[C@@H]1C\C=C/CCCC(O)=O,InChIKey=XEYBRNLFEZDVAW-ARSRFYASSA-N,3.84,-3.2,3.7,NaN,NaN,NaN,NA,NaN,NaN,NaN,NaN,NaN,NaN,NaN
Hesperidin,HMDB03265,5.495,1,m,NA,0.031,0,COC1=CC=C(C=C1O)[C@@H]1CC(=O)C2=C(O1)C=C(OC1O[C@H](CO[C@H]3O[C@@H](C)[C@@H](O)[C@@H](O)[C@H]3O)[C@H](O)[C@H](O)[C@H]1O)C=C2O,InChIKey=QUQPHWDTPGMPEX-UNZJSITISA-N,14.58,-3,NA,NA,NA,NA,NA,NA,NA,NA,NA,NA,NA,NA
Prostaglandin D2,HMDB01403,5.505,1,m,NA,0.0107,-1,CCCCC[C@H](O)\C=C\[C@@H]1[C@@H](C\C=C/CCCC(O)=O)[C@@H](O)CC1=O,InChIKey=BHMBVRSPMRCCGG-OUTUXVNYSA-N,3.65,5.53,2.00E-04,NaN,NaN,NaN,NaN,NaN,NaN,NaN,NaN,NaN,NaN,NaN
Uridine diphosphate-N-acetylglucosamine,HMDB00290,5.518,2,dd,7.14 3.29,0.063,-2,CC(=O)N[C@@H]1[C@@H](O)[C@H](O)[C@@H](CO)O[C@@H]1OP(O)(=O)OP(O)(=O)OC[C@H]1O[C@H]([C@H](O)[C@@H]1O)N1C=CC(=O)NC1=O,InChIKey=LFTYTUAZOPRMMI-CFRASDGPSA-N,4.67,-0.88,NaN,NaN,NaN,NaN,NaN,NaN,NaN,NaN,NaN,NaN,NaN,NaN
5-Dodecenoic acid,HMDB00529,5.535,4,m,NA,0.0146,-1,CCCCCC\C=C/CCCC(O)=O,InChIKey=IJBFSOLHRKELLR-FPLPWBNLSA-N,-1.9,-1.5,NA,NA,NA,NA,NA,NA,NA,NA,NA,NA,NA,NA
Alpha-Hydroxyhippuric acid,HMDB02404,5.535,1,s,NA,0.8315,-1,OC(NC(=O)C1=CC=CC=C1)C(O)=O,InChIKey=GCWCVCCEIQXUQU-UHFFFAOYSA-N,4.17,-6.6,NA,NA,NA,NA,NA,NA,NA,NA,NA,NA,NA,NA
N-Stearoylsphingosine,HMDB00829,5.535,0,m,NA,5.00E-04,0,CCCCCCCCCCCCCCCCCC(=O)NC(CO)C(O)\C=C\CCCCCCCCCCCCC,InChIKey=VODZWWMEJITOND-OWWNRXNESA-N,1.23,-3,NA,NA,NA,NA,NA,NA,NA,NA,NA,NA,NA,NA
Orotidine,HMDB00788,5.555,1,d,3.47,0.2276,-1,OC[C@H]1O[C@H]([C@H](O)[C@@H]1O)N1C(=O)NC(=O)C=C1C(O)=O,InChIKey=FKCRAVPPBFWEJD-XVFCMESISA-N,12.5,-3.6,NaN,NaN,NaN,NaN,NaN,NaN,NaN,NaN,NaN,NaN,NaN,NaN
Decanoylcarnitine,HMDB00651,5.585,1,m,NA,0.0379,0,CCCCCCCCCC(=O)OC(CC([O-])=O)C[N+](C)(C)C,InChIKey=LZOSYCMHQXPBFU-UHFFFAOYSA-N,5,-6.2,0.2005,NaN,NaN,NaN,NaN,NaN,NaN,NaN,NaN,NaN,NaN,NaN
L-Acetylcarnitine,HMDB00201,5.585,1,q,NA,0.0174,0,CC(=O)OC(CC([O-])=O)C[N+](C)(C)C,InChIKey=RDHQFKQIGNGIED-UHFFFAOYSA-N,4.95,-2.2,5.48,NaN,NaN,0.973,NaN,NaN,NaN,NaN,NaN,NaN,NaN,NaN
2-Ethylacrylic acid,HMDB01862,5.585,1,br. s.,NA,0.2516,-1,CCC(=C)C(O)=O,InChIKey=WROUWQQRXUBECT-UHFFFAOYSA-N,3.28,9.83,NA,NA,NA,NA,NA,NA,NA,NA,NA,NA,NA,NA
Stearoylcarnitine,HMDB00848,5.595,1,m,NA,0.0049,0,CCCCCCCCCCCCCCCCCC(=O)OC(CC([O-])=O)C[N+](C)(C)C,InChIKey=FNPHNLNTJNMAEE-UHFFFAOYSA-N,0.83,5,0.06,NaN,NaN,NaN,NaN,NaN,NaN,NaN,NaN,NaN,NaN,NaN
L-Palmitoylcarnitine,HMDB00222,5.595,3,dt,7.34,0.0433,0,CCCCCCCCCCCCCCCC(=O)O[C@H](CC([O-])=O)C[N+](C)(C)C,InChIKey=XOMRRQXKHMYMOC-OAQYLSRUSA-N,1.62,-0.58,0.113,0.5,NaN,0.034,NaN,NaN,NaN,NaN,NaN,NaN,NaN,NaN
7-Dehydrocholesterol,HMDB00032,5.595,1,m,NA,0.0959,0,[H][C@@]12CC[C@H]([C@H](C)CCCC(C)C)[C@@]1(C)CC[C@@]1([H])C2=CC=C2C[C@@H](O)CC[C@]12C,InChIKey=UCTLRSWJYQTBFZ-DDPQNLDTSA-N,11.25,4.99,5,0.029,NaN,NaN,0,NaN,NaN,NaN,NaN,NaN,NaN,NaN
Citraconic acid,HMDB00634,5.613,7,d,1.54,0.1238,-2,C\C(=C\C(O)=O)C(O)=O,InChIKey=HNEGQIOMVPPMNR-IHWYPQMZSA-N,-1.4,9.8,NaN,NaN,NaN,NaN,NaN,NaN,NaN,NaN,NaN,NaN,NaN,NaN
L-Hexanoylcarnitine,HMDB00756,5.615,1,m,NA,0.0088,0,CCCCCC(=O)O[C@H](CC([O-])=O)C[N+](C)(C)C,InChIKey=VVPRQWTYSNDTEA-LLVKDONJSA-N,4.17,-3.3,0.08,NaN,NaN,NaN,NaN,NaN,NaN,NaN,NaN,NaN,NaN,NaN
Hexanoylcarnitine,HMDB00705,5.615,1,dt,NA,0.0326,0,CCCCCC(=O)OC(CC([O-])=O)C[N+](C)(C)C,InChIKey=VVPRQWTYSNDTEA-UHFFFAOYSA-N,11.39,-6.3,NaN,NaN,NaN,NaN,NaN,NaN,NaN,NaN,NaN,NaN,NaN,NaN
Uridine diphosphate glucose,HMDB00286,5.615,1,dd,7.18 3.39,0.3258,-2,OC[C@@H]1OC(OP(O)(=O)OP(O)(=O)OC[C@@H]2O[C@@H]([C@@H](O)[C@H]2O)N2C=CC(=O)NC2=O)[C@@H](O)[C@H](O)[C@H]1O,InChIKey=HSCJRCZFDFQWRP-LPTOLDDLSA-N,18.3,0.7,NaN,NaN,NaN,NaN,NaN,NaN,NaN,NaN,NaN,NaN,NaN,NaN
L-Octanoylcarnitine,HMDB00791,5.625,1,m,NA,0.0341,0,CCCCCCCC(=O)O[C@H](CC([O-])=O)C[N+](C)(C)C,InChIKey=CXTATJFJDMJMIY-CYBMUJFWSA-N,3.6,3.19,0.1755,NaN,NaN,NaN,NaN,NaN,NaN,NaN,NaN,NaN,NaN,NaN
Isobutyryl-L-carnitine,HMDB00736,5.625,3,m,NA,0.0156,0,CC(C)C(=O)OC(CC([O-])=O)C[N+](C)(C)C,InChIKey=LRCNOZRCYBNMEP-UHFFFAOYSA-N,3.65,-3,NaN,NaN,NaN,NaN,NaN,NaN,NaN,NaN,NaN,NaN,NaN,NaN
3-Hexenedioic acid,HMDB00393,5.626,2,tt,3.86 2.01 1.70,0.3112,-2,OC(=O)C\C=C\CC(O)=O,InChIKey=YHGNXQAFNHCBTK-OWOJBTEDSA-N,4.38,-2.8,NA,NA,NA,NA,NA,NA,NA,NA,NA,NA,NA,NA
Diphenhydramine,HMDB01927,5.628,1,s,NA,0.1255,1,CN(C)CCOC(C1=CC=CC=C1)C1=CC=CC=C1,InChIKey=ZZVUWRFHKOJYTH-UHFFFAOYSA-N,1.87,10,NaN,NaN,NaN,NaN,NaN,NaN,NaN,NaN,NaN,NaN,NaN,NaN
Aldosterone,HMDB00037,5.635,2,s,NA,0.1014,0,C[C@]12CCC(=O)C=C1CCC1C3CC[C@H](C(=O)CO)[C@]3(C[C@H](O)C21)C=O,InChIKey=PQSUYGKTWSAVDQ-SRPWZAMTSA-N,4.03,-3,6.80E-05,0.01,NaN,NA,NaN,NaN,NaN,NaN,NaN,NaN,NaN,NaN
Isovalerylcarnitine,HMDB00688,5.635,1,m,NA,0.0138,0,CC(C)CC(=O)OC(CC([O-])=O)C[N+](C)(C)C,InChIKey=IGQBPDJNUXPEMT-UHFFFAOYSA-N,11.6,9.4,0.138,NaN,NaN,0.073,NaN,NaN,NaN,NaN,NaN,NaN,NaN,NaN
17-alpha.20-alpha-Dihydroxypregn-4-en-3-one,HMDB11653,5.635,1,s,NA,0.2142,0,[H][C@@]12CC[C@](O)([C@H](C)O)[C@@]1(C)CC[C@@]1([H])[C@@]2([H])CCC2=CC(=O)CC[C@]12C,InChIKey=MASCESDECGBIBB-HNXXTFFGSA-N,1.86,-3,NA,NA,NA,NA,NA,NA,NA,NA,NA,NA,NA,NA
2-Methylbutyroylcarnitine,HMDB00378,5.645,1,dd,13.65 6.75,0.0193,0,CCC(C)C(=O)OC(CC([O-])=O)C[N+](C)(C)C,InChIKey=IHCPDBBYTYJYIL-UHFFFAOYSA-N,1.86,-1.3,NaN,NaN,NaN,NaN,NaN,NaN,NaN,NaN,NaN,NaN,NaN,NaN
Uridine diphosphategalactose,HMDB00302,5.645,1,dd,7.18 3.60,0.2265,-2,OC[C@H]1O[C@H](O[P@@](O)(=O)O[P@@](O)(=O)OC[C@H]2O[C@H]([C@H](O)[C@@H]2O)N2C=CC(=O)NC2=O)[C@H](O)[C@@H](O)[C@H]1O,InChIKey=HSCJRCZFDFQWRP-ABVWGUQPSA-N,4.48,-2.8,NaN,NaN,NaN,NaN,NaN,NaN,NaN,NaN,NaN,NaN,NaN,NaN
Cortisone,HMDB02802,5.655,1,s,NA,0.2507,0,[H][C@@]12CC[C@](O)(C(=O)CO)[C@@]1(C)CC(=O)[C@@]1([H])[C@@]2([H])CCC2=CC(=O)CC[C@]12C,InChIKey=MFYSYFVPBJMHGN-ZPOLXVRWSA-N,17.79,2.77,0.0624,0.011,NaN,NaN,NaN,NaN,NaN,NaN,NaN,NaN,NaN,NaN
Bilirubin,HMDB00054,5.655,2,dd,NA,0.1799,-2,CC1=C(C=C)\C(NC1=O)=C\C1=C(C)C(CCC(O)=O)=C(CC2=C(CCC(O)=O)C(C)=C(N2)\C=C2/NC(=O)C(C=C)=C2C)N1,InChIKey=BPYKTIZUTYGOLE-IFADSCNNSA-N,3.6,-0.54,11.6,NA,NaN,NaN,0,NaN,NaN,NaN,NaN,NaN,NaN,NaN
SM(d18:1/18:0),HMDB01348,5.655,1,m,NA,0.0095,0,CCCCCCCCCCCCCCCCCC(=O)N[C@@]([H])(COP(O)(=O)OCC[N+](C)(C)C)[C@]([H])(O)\C=C\CCCCCCCCCCCCC,InChIKey=LKQLRGMMMAHREN-YJFXYUILSA-O,1.86,-6.7,157.1,NaN,NaN,0.121,NaN,NaN,NaN,NaN,NaN,NaN,NaN,NaN
Senecioic acid,HMDB00509,5.665,1,dt,2.56 1.20,0.212,-1,CC(C)=CC(O)=O,InChIKey=YYPNJNDODFVZLE-UHFFFAOYSA-N,3.77,-7.1,NA,NA,NA,NA,NA,NA,NA,NA,NA,NA,NA,NA
3-Methylcrotonylglycine,HMDB00459,5.665,10,s,NA,0.304,-1,CC(C)=CC(=O)NCC(O)=O,InChIKey=PFWQSHXPNKRLIV-UHFFFAOYSA-N,3.52,-3.3,NaN,1,NaN,NaN,NaN,NaN,NaN,NaN,NaN,NaN,NaN,NaN
13-cis-Retinoic acid,HMDB06219,5.675,1,s,NA,0.0422,-1,C\C(\C=C\C1=C(C)CCCC1(C)C)=C/C=C/C(/C)=C\C(O)=O,InChIKey=SHGAZHPCJJPHSC-XFYACQKRSA-N,0.38,-3.7,NaN,NaN,NaN,NaN,NaN,NaN,NaN,NaN,NaN,NaN,NaN,NaN
17-Hydroxyprogesterone,HMDB00374,5.675,4,s,NA,0.2077,0,[H][C@@]12CC[C@](O)(C(C)=O)[C@@]1(C)CC[C@@]1([H])[C@@]2([H])CCC2=CC(=O)CC[C@]12C,InChIKey=DBPWSSGDRRHUNT-CEGNMAFCSA-N,7.36,-1.4,NaN,0.0013,NaN,NA,NaN,NaN,NaN,NaN,NaN,NaN,NaN,NaN
Perillyl alcohol,HMDB03634,5.685,1,m,3.58 2.39 1.17,0.0787,0,CC(=C)C1CCC(CO)=CC1,InChIKey=NDTYTMIUWGWIMO-UHFFFAOYSA-N,14.58,-3,NaN,NaN,NaN,NaN,NaN,NaN,NaN,NaN,NaN,NaN,NaN,NaN
Canrenone,HMDB03033,5.705,1,s,NA,0.0782,0,[H][C@@]12CC[C@@]3(CCC(=O)O3)[C@@]1(C)CC[C@@]1([H])[C@@]2([H])C=CC2=CC(=O)CC[C@]12C,InChIKey=UJVLDDZCTMKXJK-WNHSNXHDSA-N,6.68,-0.81,NA,NA,NA,NA,NA,NA,NA,NA,NA,NA,NA,NA
7-Ketocholesterol,HMDB00501,5.715,1,d,1.6,0.0972,0,[H][C@@]12CCC([C@H](C)CCCC(C)C)[C@@]1(C)CC[C@@]1([H])[C@@]2([H])C(=O)C=C2CC(O)CC[C@]12C,InChIKey=YIKKMWSQVKJCOP-QJFKPLHKSA-N,4.65,-6.7,0.056333333,NaN,NaN,NaN,NaN,NaN,NaN,NaN,NaN,NaN,NaN,NaN
Cholestenone,HMDB00921,5.745,1,s,NA,0.2196,0,[H][C@@]12CC[C@H]([C@H](C)CCCC(C)C)[C@@]1(C)CC[C@@]1([H])[C@@]2([H])CCC2=CC(=O)CC[C@]12C,InChIKey=NYOXRYYXRWJDKP-GYKMGIIDSA-N,0.83,7.72,NaN,NaN,NaN,NaN,NaN,NaN,NaN,NaN,NaN,NaN,NaN,NaN
Testosterone,HMDB00234,5.754,1,s,NA,0.1002,0,[H][C@@]12CC[C@H](O)[C@@]1(C)CC[C@@]1([H])[C@@]2([H])CCC2=CC(=O)CC[C@]12C,InChIKey=MUMGGOZAMZWBJJ-DYKIIFRCSA-N,4.56,-2.8,NaN,1.07,NaN,NaN,NaN,NaN,NaN,NaN,NaN,NaN,NaN,NaN
Progesterone,HMDB01830,5.755,1,s,NA,0.2337,0,[H][C@@]12CC[C@H](C(C)=O)[C@@]1(C)CC[C@@]1([H])[C@@]2([H])CCC2=CC(=O)CC[C@]12C,InChIKey=RJKFOVLPORLFTN-LEKSSAKUSA-N,11.17,-6.2,0.0025,NaN,NaN,NaN,NaN,NaN,NaN,NaN,NaN,NaN,NaN,NaN
16-Dehydroprogesterone,HMDB00995,5.755,1,s,NA,0.1826,0,[H][C@@]12CC=C(C(C)=O)[C@@]1(C)CC[C@@]1([H])[C@@]2([H])CCC2=CC(=O)CC[C@]12C,InChIKey=VRRHHTISESGZFN-RKFFNLMFSA-N,2.52,-0.94,NA,NA,NA,NA,NA,NA,NA,NA,NA,NA,NA,NA
Deoxycorticosterone,HMDB00016,5.755,1,br. s.,NA,0.1064,0,[H][C@@]12CC[C@H](C(=O)CO)[C@@]1(C)CC[C@@]1([H])[C@@]2([H])CCC2=CC(=O)CC[C@]12C,InChIKey=ZESRJSPZRDMNHY-YFWFAHHUSA-N,-1.9,-2.7,NaN,NaN,NaN,NaN,NaN,NaN,NaN,NaN,NaN,NaN,NaN,NaN
Epitestosterone,HMDB00628,5.755,1,s,NA,0.0408,0,[H][C@@]12CC[C@@H](O)[C@@]1(C)CC[C@@]1([H])[C@@]2([H])CCC2=CC(=O)CC[C@]12C,InChIKey=MUMGGOZAMZWBJJ-KZYORJDKSA-N,3.89,4.89,NaN,NaN,NaN,NaN,NaN,NaN,NaN,NaN,NaN,NaN,NaN,NaN
Androstenedione,HMDB00053,5.765,2,s,NA,0.0988,0,[H][C@@]12CCC(=O)[C@@]1(C)CC[C@@]1([H])[C@@]2([H])CCC2=CC(=O)CC[C@]12C,InChIKey=AEMFNILZOJDQLW-QAGGRKNESA-N,18.2,-7.4,0.0059,0.0068,NaN,NaN,NaN,NaN,NaN,NaN,NaN,NaN,NaN,NaN
Sphingosine,HMDB00252,5.765,1,m,NA,0.0372,1,CCCCCCCCCCCCC\C=C\C(O)C(N)CO,InChIKey=WWUZIQQURGPMPG-CCEZHUSRSA-N,10.33,-2.7,0.05,3.85E-05,NaN,NaN,NaN,NaN,NaN,NaN,NaN,NaN,NaN,NaN
Corticosterone,HMDB01547,5.775,1,s,NA,0.0633,0,[H][C@@]12CC[C@H](C(=O)CO)[C@@]1(C)C[C@H](O)[C@@]1([H])[C@@]2([H])CCC2=CC(=O)CC[C@]12C,InChIKey=OMFXVFTZEKFJBZ-HJTSIMOOSA-N,2.79,-0.13,0.027,NaN,NaN,NaN,NaN,NaN,NaN,NaN,NaN,NaN,NaN,NaN
N-Stearoylsphingosine,HMDB00829,5.775,0,m,NA,5.00E-04,0,CCCCCCCCCCCCCCCCCC(=O)NC(CO)C(O)\C=C\CCCCCCCCCCCCC,InChIKey=VODZWWMEJITOND-OWWNRXNESA-N,1.23,-3,NA,NA,NA,NA,NA,NA,NA,NA,NA,NA,NA,NA
Orotidine,HMDB00788,5.775,1,s,NA,0.3088,-1,OC[C@H]1O[C@H]([C@H](O)[C@@H]1O)N1C(=O)NC(=O)C=C1C(O)=O,InChIKey=FKCRAVPPBFWEJD-XVFCMESISA-N,12.5,-3.6,NaN,NaN,NaN,NaN,NaN,NaN,NaN,NaN,NaN,NaN,NaN,NaN
All-trans-retinoic acid,HMDB01852,5.785,1,s,NA,0.1511,-1,C\C(\C=C\C1=C(C)CCCC1(C)C)=C/C=C/C(/C)=C/C(O)=O,InChIKey=SHGAZHPCJJPHSC-YCNIQYBTSA-N,10.09,5.81,NaN,NaN,NaN,NaN,NaN,NaN,NaN,NaN,NaN,NaN,NaN,NaN
Urea,HMDB00294,5.795,4,br. s.,NA,0.0709,0,NC(N)=O,InChIKey=XSQUKJJJFZCRTK-UHFFFAOYSA-N,4.44,-1.6,6287.3,12695.74667,NaN,617.11,3990,NaN,NaN,NaN,NaN,NaN,NaN,NaN
N-Acryloylglycine,HMDB01843,5.795,11,m,NA,0.438,-1,OC(=O)CNC(=O)C=C,InChIKey=LZCXCXDOGAEFQX-UHFFFAOYSA-N,3.91,10.14,NA,NA,NA,NA,NA,NA,NA,NA,NA,NA,NA,NA
Uracil,HMDB00300,5.805,1,d,7.69,0.6778,0,O=C1NC=CC(=O)N1,InChIKey=ISAKRJDGNUQOIC-UHFFFAOYSA-N,2.56,-2.7,1.135,6.593333333,NaN,38.89,0.1,NaN,NaN,NaN,NaN,NaN,NaN,NaN
Medroxyprogesterone,HMDB01939,5.805,1,s,NA,0.0537,0,[H][C@@]12CC[C@](O)(C(C)=O)[C@@]1(C)CC[C@@]1([H])[C@@]2([H])C[C@H](C)C2=CC(=O)CC[C@]12C,InChIKey=FRQMUZJSZHZSGN-HBNHAYAOSA-N,4.94,1.15,NA,NA,NA,NA,NA,NA,NA,NA,NA,NA,NA,NA
2-Octenoic acid,HMDB00392,5.815,1,d,15.57,0.2175,-1,CCCCC\C=C/C(O)=O,InChIKey=CWMPPVPFLSZGCY-SREVYHEPSA-N,4.89,-3.2,NA,NA,NA,NA,NA,NA,NA,NA,NA,NA,NA,NA
trans-2-Octenoic acid,HMDB01568,5.815,1,dt,15.60 1.49,0.2736,-1,CCCCC\C=C\C(O)=O,InChIKey=CWMPPVPFLSZGCY-VOTSOKGWSA-N,14.58,-1.3,NA,NA,NA,NA,NA,NA,NA,NA,NA,NA,NA,NA
Phloretin,HMDB03306,5.825,2,s,NA,0.6342,0,OC1=CC=C(CCC(=O)C2=C(O)C=C(O)C=C2O)C=C1,InChIKey=VGEREEWJJVICBM-UHFFFAOYSA-N,14.58,-3,NaN,NaN,NaN,NaN,NaN,NaN,NaN,NaN,NaN,NaN,NaN,NaN
Traumatic acid,HMDB00933,5.825,5,d,15.69,0.1471,-2,OC(=O)CCCCCCCC\C=C\C(O)=O,InChIKey=MAZWDMBCPDUFDJ-VQHVLOKHSA-N,7.54,-1.3,NaN,NaN,NaN,NaN,NaN,NaN,NaN,NaN,NaN,NaN,NaN,NaN
FAD,HMDB01248,5.835,1,d,5.25,0.2468,-3,CC1=CC2=C(C=C1C)N(C[C@H](O)[C@H](O)[C@H](O)COP(O)(=O)OP(O)(=O)OC[C@H]1O[C@H]([C@H](O)[C@@H]1O)N1C=NC3=C1N=CN=C3N)C1=NC(=O)NC(=O)C1=N2,InChIKey=VWWQXMAJTJZDQX-UYBVJOGSSA-N,10.59,-2.6,0.075,NaN,NaN,NaN,NaN,NaN,NaN,NaN,NaN,NaN,NaN,NaN
2-Phenylaminoadenosine,HMDB01069,5.835,1,d,NA,0.0247,0,NC1=C2N=CN(C3OC(CO)C(O)C3O)C2=NC(NC2=CC=CC=C2)=N1,InChIKey=SCNILGOVBBRMBK-UHFFFAOYSA-N,0.9,7.43,NA,NA,NA,NA,NA,NA,NA,NA,NA,NA,NA,NA
Acrylamide,HMDB04296,5.835,1,dd,10.18 1.16,0.8891,0,NC(=O)C=C,InChIKey=HRPVXLWXLXDGHG-UHFFFAOYSA-N,1.86,-6.7,NA,NA,NA,NA,NA,NA,NA,NA,NA,NA,NA,NA
FADH,HMDB01197,5.835,1,d,5.25,0.2468,-2,CC1=CC2=C(C=C1C)N(C[C@H](O)[C@H](O)[C@H](O)COP(O)(=O)OP(O)(=O)OC[C@H]1O[C@H]([C@H](O)[C@@H]1O)N1C=NC3=C1N=CN=C3N)C1=C(N2)C(=O)NC(=O)N1,InChIKey=YPZRHBJKEMOYQH-UYBVJOGSSA-N,3.63,-3.4,NA,NA,NA,NA,NA,NA,NA,NA,NA,NA,NA,NA
Anatabine,HMDB04476,5.845,1,m,NA,0.0688,1,C1N[C@@H](CC=C1)C1=CN=CC=C1,InChIKey=SOPPBXUYQGUQHE-JTQLQIEISA-N,1.86,-6.7,NA,NA,NA,NA,NA,NA,NA,NA,NA,NA,NA,NA
2-Octenedioic acid,HMDB00341,5.845,1,d,15.6,0.4266,-2,OC(=O)CCCC\C=C\C(O)=O,InChIKey=BNTPVRGYUHJFHN-HWKANZROSA-N,4.65,-1.3,NaN,NaN,NaN,NaN,NaN,NaN,NaN,NaN,NaN,NaN,NaN,NaN
Xanthosine,HMDB00299,5.865,16,d,6.45,0.4318,0,OC[C@H]1O[C@H]([C@H](O)[C@@H]1O)N1C=NC2=C1N=C(O)N=C2O,InChIKey=UBORTCNDUKBEOP-UUOKFMHZSA-N,4.51,-0.61,5.08,NaN,NaN,NaN,NaN,NaN,NaN,NaN,NaN,NaN,NaN,NaN
Itaconic acid,HMDB02092,5.865,1,s,NA,0.4524,-2,OC(=O)CC(=C)C(O)=O,InChIKey=LVHBHZANLOWSRM-UHFFFAOYSA-N,0.83,-3.6,NA,NA,NA,NA,NA,NA,NA,NA,NA,NA,NA,NA
Catechin,HMDB02780,5.865,1,d,2.26,0.1478,0,O[C@H]1CC2=C(O)C=C(O)C=C2O[C@@H]1C1=CC(O)=C(O)C=C1,InChIKey=PFTAWBLQPZVEMU-DZGCQCFKSA-N,0.83,4.95,NaN,NaN,NaN,NaN,NaN,NaN,NaN,NaN,NaN,NaN,NaN,NaN
Glutaconic acid,HMDB00620,5.873,1,dt,15.56 1.49,0.4354,-2,OC(=O)C\C=C\C(O)=O,InChIKey=XVOUMQNXTGKGMA-OWOJBTEDSA-N,3.71,-2.8,NaN,NaN,NaN,NaN,NaN,NaN,NaN,NaN,NaN,NaN,NaN,NaN
1.3-Dimethyluracil,HMDB02144,5.875,1,d,7.81,0.1031,0,CN1C=CC(=O)N(C)C1=O,InChIKey=JSDBKAHWADVXFU-UHFFFAOYSA-N,10.33,-3.5,NA,NA,NA,NA,NA,NA,NA,NA,NA,NA,NA,NA
Anatabine,HMDB04476,5.885,1,m,NA,0.0443,1,C1N[C@@H](CC=C1)C1=CN=CC=C1,InChIKey=SOPPBXUYQGUQHE-JTQLQIEISA-N,1.86,-6.7,NA,NA,NA,NA,NA,NA,NA,NA,NA,NA,NA,NA
Deoxycytidine,HMDB00014,5.895,1,d,8.1,0.8231,0,NC1=NC(=O)N(C=C1)[C@H]1C[C@H](O)[C@@H](CO)O1,InChIKey=CKTSBUTUHBMZGZ-SHYZEUOFSA-N,10.39,9.5,NaN,NaN,NaN,NaN,NaN,NaN,NaN,NaN,NaN,NaN,NaN,NaN
Naringenin,HMDB02670,5.895,0,d,NA,0.0341,0,OC1=CC=C(C=C1)[C@@H]1CC(=O)C2=C(O)C=C(O)C=C2O1,InChIKey=FTVWIRXFELQLPI-ZDUSSCGKSA-N,18.2,9.79,NaN,NaN,NaN,NaN,NaN,NaN,NaN,NaN,NaN,NaN,NaN,NaN
Uridine,HMDB00296,5.897,2,d,NA,1,0,OC[C@H]1O[C@H]([C@H](O)[C@@H]1O)N1C=CC(=O)NC1=O,InChIKey=DRTQHJPVMGBUCF-XVFCMESISA-N,3.77,-0.35,3.11,0.602,NaN,NaN,NaN,NaN,NaN,NaN,NaN,NaN,NaN,NaN
Cytidine,HMDB00089,5.905,12,d,3.98,0.7927,0,NC1=NC(=O)N(C=C1)[C@@H]1O[C@H](CO)[C@@H](O)[C@H]1O,InChIKey=UHDGCWIWMRVCDJ-XVFCMESISA-N,12.18,-5.4,0.175,0.393333333,NaN,0.132,NaN,NaN,NaN,NaN,NaN,NaN,NaN,NaN
Naringenin,HMDB02670,5.905,0,d,NA,0.0377,0,OC1=CC=C(C=C1)[C@@H]1CC(=O)C2=C(O)C=C(O)C=C2O1,InChIKey=FTVWIRXFELQLPI-ZDUSSCGKSA-N,18.2,9.79,NaN,NaN,NaN,NaN,NaN,NaN,NaN,NaN,NaN,NaN,NaN,NaN
S-Adenosylhomocysteine,HMDB00939,5.905,1,d,5.83,0.4861,0,N[C@@H](CCSC[C@H]1O[C@H]([C@H](O)[C@@H]1O)N1C=NC2=C(N)N=CN=C12)C(O)=O,InChIKey=ZJUKTBDSGOFHSH-WFMPWKQPSA-N,9.43,1.41,NaN,NaN,NaN,NaN,0.01,NaN,NaN,NaN,NaN,NaN,NaN,NaN
Deoxyuridine,HMDB00012,5.915,8,d,8.08,0.1751,0,OC[C@H]1O[C@H](C[C@@H]1O)N1C=CC(=O)NC1=O,InChIKey=MXHRCPNRJAMMIM-SHYZEUOFSA-N,4,-9.7,0.284,1,NaN,NaN,0,NaN,NaN,NaN,NaN,NaN,NaN,NaN
Guanosine,HMDB00133,5.915,1,d,5.95,0.2981,0,NC1=NC2=C(N=CN2[C@@H]2O[C@H](CO)[C@@H](O)[C@H]2O)C(=O)N1,InChIKey=NYHBQMYGNKIUIF-UUOKFMHZSA-N,2.48,-3.6,0.8,0.08,NaN,0.101,NaN,NaN,NaN,NaN,NaN,NaN,NaN,NaN
5-Methylcytidine,HMDB00982,5.915,1,d,4.24,0.2301,0,CC1=CN([C@@H]2O[C@H](CO)[C@@H](O)[C@H]2O)C(=O)N=C1N,InChIKey=ZAYHVCMSTBRABG-JXOAFFINSA-N,4.13,5.53,NaN,NaN,NaN,NaN,NaN,NaN,NaN,NaN,NaN,NaN,NaN,NaN
Uridine,HMDB00296,5.917,3,d,NA,1,0,OC[C@H]1O[C@H]([C@H](O)[C@@H]1O)N1C=CC(=O)NC1=O,InChIKey=DRTQHJPVMGBUCF-XVFCMESISA-N,3.77,-0.35,3.11,0.602,NaN,NaN,NaN,NaN,NaN,NaN,NaN,NaN,NaN,NaN
Ribothymidine,HMDB00884,5.922,1,d,4.8,0.257,0,CC1=CN([C@@H]2O[C@H](CO)[C@@H](O)[C@H]2O)C(=O)NC1=O,InChIKey=DWRXFEITVBNRMK-JXOAFFINSA-N,0.83,9.06,NaN,NaN,NaN,NaN,NaN,NaN,NaN,NaN,NaN,NaN,NaN,NaN
Guanosine diphosphate,HMDB01201,5.934,2,d,5.79,0.67,-2,NC1=NC2=C(N=CN2[C@@H]2O[C@H](COP(O)(=O)OP(O)(O)=O)[C@@H](O)[C@H]2O)C(=O)N1,InChIKey=QGWNDRXFNXRZMB-UUOKFMHZSA-N,12.45,8.87,18,NaN,NaN,NaN,1.86,NaN,NaN,NaN,NaN,NaN,NaN,NaN
Catechin,HMDB02780,5.935,1,d,2.26,0.149,0,O[C@H]1CC2=C(O)C=C(O)C=C2O[C@@H]1C1=CC(O)=C(O)C=C1,InChIKey=PFTAWBLQPZVEMU-DZGCQCFKSA-N,0.83,4.95,NaN,NaN,NaN,NaN,NaN,NaN,NaN,NaN,NaN,NaN,NaN,NaN
Guanosine triphosphate,HMDB01273,5.935,1,d,6.11,0.1354,-3,NC1=NC2=C(N=CN2[C@@H]2O[C@H](COP(O)(=O)OP(O)(=O)OP(O)(O)=O)[C@@H](O)[C@H]2O)C(=O)N1,InChIKey=XKMLYUALXHKNFT-UUOKFMHZSA-N,12.43,-1.2,NaN,NaN,NaN,NaN,1.83,NaN,NaN,NaN,NaN,NaN,NaN,NaN
Thymol,HMDB01878,5.935,6,d,6.93,1,0,CC(C)C1=C(O)C=C(C)C=C1,InChIKey=MGSRCZKZVOBKFT-UHFFFAOYSA-N,0.81,4.95,NaN,NaN,NaN,NaN,NaN,NaN,NaN,NaN,NaN,NaN,NaN,NaN
Guanosine monophosphate,HMDB01397,5.952,1,d,6.1,0.0233,-2,NC1=NC2=C(N=CN2[C@@H]2O[C@H](COP(O)(O)=O)[C@@H](O)[C@H]2O)C(=O)N1,InChIKey=RQFCJASXJCIDSX-UUOKFMHZSA-N,4.27,0.53,NaN,NaN,NaN,NaN,NaN,NaN,NaN,NaN,NaN,NaN,NaN,NaN
ADP,HMDB01341,5.955,1,m,NA,0.1432,-2,NC1=NC=NC2=C1N=CN2[C@@H]1O[C@H](COP(O)(=O)OP(O)(O)=O)[C@@H](O)[C@H]1O,InChIKey=XTWYTFMLZFPYCI-KQYNXXCUSA-N,3.24,-2.8,NaN,NaN,NaN,NaN,1.9,NaN,NaN,NaN,NaN,NaN,NaN,NaN
Uridine 5'-diphosphate,HMDB00295,5.965,1,s,NA,1,-2,O[C@H]1[C@@H](O)[C@@H](O[C@@H]1COP(O)(=O)OP(O)(O)=O)N1C=CC(=O)NC1=O,InChIKey=XCCTYIAWTASOJW-XVFCMESISA-N,5.25,-2.8,NaN,NaN,NaN,NaN,NaN,NaN,NaN,NaN,NaN,NaN,NaN,NaN
Uridine diphosphate-N-acetylglucosamine,HMDB00290,5.967,1,d,8.05,0.23,-2,CC(=O)N[C@@H]1[C@@H](O)[C@H](O)[C@@H](CO)O[C@@H]1OP(O)(=O)OP(O)(=O)OC[C@H]1O[C@H]([C@H](O)[C@@H]1O)N1C=CC(=O)NC1=O,InChIKey=LFTYTUAZOPRMMI-CFRASDGPSA-N,4.67,-0.88,NaN,NaN,NaN,NaN,NaN,NaN,NaN,NaN,NaN,NaN,NaN,NaN
Cytosine,HMDB00630,5.975,1,d,7.17,0.9732,0,NC1=CC=NC(=O)N1,InChIKey=OPTASPLRGRRNAP-UHFFFAOYSA-N,2.84,0.98,NaN,NaN,NaN,NaN,NaN,NaN,NaN,NaN,NaN,NaN,NaN,NaN
cis.cis-Muconic acid,HMDB06331,5.985,2,m,NA,0.2111,-2,OC(=O)\C=C/C=C\C(O)=O,InChIKey=TXXHDPDFNKHHGW-CCAGOZQPSA-N,1.59,-3.4,NA,NA,NA,NA,NA,NA,NA,NA,NA,NA,NA,NA
Retinal,HMDB01358,5.985,1,d,NA,0.03,0,C\C(\C=C\C=C(/C)\C=C\C1=C(C)CCCC1(C)C)=C/C=O,InChIKey=NCYCYZXNIZJOKI-OVSJKPMPSA-N,1.48,10.78,NaN,NaN,NaN,NaN,NaN,NaN,NaN,NaN,NaN,NaN,NaN,NaN
Uridine 5'-diphosphate,HMDB00295,5.985,1,d,2.97,0.5655,-2,O[C@H]1[C@@H](O)[C@@H](O[C@@H]1COP(O)(=O)OP(O)(O)=O)N1C=CC(=O)NC1=O,InChIKey=XCCTYIAWTASOJW-XVFCMESISA-N,5.25,-2.8,NaN,NaN,NaN,NaN,NaN,NaN,NaN,NaN,NaN,NaN,NaN,NaN
Uridine diphosphate glucose,HMDB00286,5.985,3,m,NA,1,-2,OC[C@@H]1OC(OP(O)(=O)OP(O)(=O)OC[C@@H]2O[C@@H]([C@@H](O)[C@H]2O)N2C=CC(=O)NC2=O)[C@@H](O)[C@H](O)[C@H]1O,InChIKey=HSCJRCZFDFQWRP-LPTOLDDLSA-N,18.3,0.7,NaN,NaN,NaN,NaN,NaN,NaN,NaN,NaN,NaN,NaN,NaN,NaN
Uridine diphosphategalactose,HMDB00302,5.985,2,m,NA,0.7668,-2,OC[C@H]1O[C@H](O[P@@](O)(=O)O[P@@](O)(=O)OC[C@H]2O[C@H]([C@H](O)[C@@H]2O)N2C=CC(=O)NC2=O)[C@H](O)[C@@H](O)[C@H]1O,InChIKey=HSCJRCZFDFQWRP-ABVWGUQPSA-N,4.48,-2.8,NaN,NaN,NaN,NaN,NaN,NaN,NaN,NaN,NaN,NaN,NaN,NaN
Uridine diphosphate-N-acetylglucosamine,HMDB00290,5.985,1,d,8.05,0.23,-2,CC(=O)N[C@@H]1[C@@H](O)[C@H](O)[C@@H](CO)O[C@@H]1OP(O)(=O)OP(O)(=O)OC[C@H]1O[C@H]([C@H](O)[C@@H]1O)N1C=CC(=O)NC1=O,InChIKey=LFTYTUAZOPRMMI-CFRASDGPSA-N,4.67,-0.88,NaN,NaN,NaN,NaN,NaN,NaN,NaN,NaN,NaN,NaN,NaN,NaN
Uridine 5'-monophosphate,HMDB00288,5.995,2,m,NA,0.9335,-2,O[C@H]1[C@@H](O)[C@@H](O[C@@H]1COP(O)(O)=O)N1C=CC(=O)NC1=O,InChIKey=DJJCXFVJDGTHFX-XVFCMESISA-N,4.67,2.02,184,NaN,NaN,0.21,NaN,NaN,NaN,NaN,NaN,NaN,NaN,NaN
Citicoline,HMDB01413,5.995,1,d,4.24,0.0708,-1,C[N+](C)(C)CCOP([O-])(=O)OP(O)(=O)OC[C@H]1O[C@H]([C@H](O)[C@@H]1O)N1C=CC(N)=NC1=O,InChIKey=RZZPDXZPRHQOCG-OJAKKHQRSA-N,2.12,-3.8,NA,NA,NA,NA,NA,NA,NA,NA,NA,NA,NA,NA
1-Methylinosine,HMDB02721,6.005,1,d,5.67,0.1339,0,CN1C=NC2=C(N=CN2[C@@H]2O[C@H](CO)[C@@H](O)[C@H]2O)C1=O,InChIKey=WJNGQIYEQLPJMN-IOSLPCCCSA-N,18.21,9.04,0.06345,1.13,NaN,NaN,NaN,NaN,NaN,NaN,NaN,NaN,NaN,NaN