Metabolite,HMDB Name,Shift (ppm),Hs,Type,J (Hz),Height,Physiological Charge,SMILES,InChlKey,pKa (Strongest Acidic),pKa (Strongest Basic),Blood,Urine,Feces,Saliva,Cerebrospinal Fluid (CSF),Amniotic Fluid,Aqueous Humour,Ascites Fluid,Breast Milk,Lymph,Sweat,Tears
Isovalerylglycine,HMDB00678,2.007,1,m,NA,0.0631,-1,CC(C)CC(=O)NCC(O)=O,InChIKey=ZRQXMKMBBMNNQC-UHFFFAOYSA-N,2.84,4.58,NaN,NaN,NaN,NaN,NaN,NaN,NaN,NaN,NaN,NaN,NaN,NaN
Chenodeoxycholic acid,HMDB00518,2.011,2,m,NA,0.161,-1,[H][C@@]1(CC[C@@]2([H])[C@]3([H])[C@H](O)C[C@]4([H])C[C@H](O)CC[C@]4(C)[C@@]3([H])CC[C@]12C)[C@H](C)CCC(O)=O,InChIKey=RUDATBOHQWOJDD-BSWAIDMHSA-N,2.15,-4.1,1.165,NaN,NaN,NaN,NaN,NaN,NaN,NaN,NaN,NaN,NaN,NaN
Bilirubin,HMDB00054,2.015,3,s,NA,0.9862,-2,CC1=C(C=C)\C(NC1=O)=C\C1=C(C)C(CCC(O)=O)=C(CC2=C(CCC(O)=O)C(C)=C(N2)\C=C2/NC(=O)C(C=C)=C2C)N1,InChIKey=BPYKTIZUTYGOLE-IFADSCNNSA-N,3.6,-0.54,11.6,NA,NaN,NaN,0,NaN,NaN,NaN,NaN,NaN,NaN,NaN
SM(d18:1/18:0),HMDB01348,2.015,2,m,NA,0.0153,0,CCCCCCCCCCCCCCCCCC(=O)N[C@@]([H])(COP(O)(=O)OCC[N+](C)(C)C)[C@]([H])(O)\C=C\CCCCCCCCCCCCC,InChIKey=LKQLRGMMMAHREN-YJFXYUILSA-O,1.86,-6.7,157.1,NaN,NaN,0.121,NaN,NaN,NaN,NaN,NaN,NaN,NaN,NaN
Doxylamine,HMDB01936,2.015,3,s,NA,0.3399,1,CN(C)CCOC(C)(C1=CC=CC=C1)C1=NC=CC=C1,InChIKey=HCFDWZZGGLSKEP-UHFFFAOYSA-N,4.63,8.61,NA,NA,NA,NA,NA,NA,NA,NA,NA,NA,NA,NA
13-cis-Retinoic acid,HMDB06219,2.015,3,s,NA,0.1799,-1,C\C(\C=C\C1=C(C)CCCC1(C)C)=C/C=C/C(/C)=C\C(O)=O,InChIKey=SHGAZHPCJJPHSC-XFYACQKRSA-N,0.38,-3.7,NaN,NaN,NaN,NaN,NaN,NaN,NaN,NaN,NaN,NaN,NaN,NaN
2-Hydroxyestradiol,HMDB00338,2.015,1,td,NA,0.0378,0,[H][C@@]12CC[C@H](O)[C@@]1(C)CC[C@]1([H])C3=C(CC[C@@]21[H])C=C(O)C(O)=C3,InChIKey=DILDHNKDVHLEQB-XSSYPUMDSA-N,1.86,-6.7,NaN,NaN,NaN,NaN,NaN,NaN,NaN,NaN,NaN,NaN,NaN,NaN
Canthaxanthin,HMDB03154,2.015,12,d,8.31,0.3154,0,C\C(\C=C\C=C(/C)\C=C\C1=C(C)C(=O)CCC1(C)C)=C/C=C/C=C(\C)/C=C/C=C(\C)/C=C/C1=C(C)C(=O)CCC1(C)C,InChIKey=FDSDTBUPSURDBL-DKLMTRRASA-N,14.58,-3,NaN,NaN,NaN,NaN,NaN,NaN,NaN,NaN,NaN,NaN,NaN,NaN
N-Acetyl-L-alanine,HMDB00766,2.015,3,s,NA,1,-1,C[C@H](NC(C)=O)C(O)=O,InChIKey=KTHDTJVBEPMMGL-VKHMYHEASA-N,11.66,4.79,NaN,NaN,NaN,NaN,NaN,NaN,NaN,NaN,NaN,NaN,NaN,NaN
Nervonic acid,HMDB02368,2.015,4,m,NA,0.0452,-1,CCCCCCCC\C=C/CCCCCCCCCCCCCC(O)=O,InChIKey=GWHCXVQVJPWHRF-KTKRTIGZSA-N,13.78,10,NaN,NaN,NaN,NaN,NaN,NaN,NaN,NaN,NaN,NaN,NaN,NaN
Nutriacholic acid,HMDB00467,2.015,3,m,NA,0.1058,-1,[H][C@@]12CCC([C@@H](C)CCC(O)=O)[C@@]1(C)CC[C@@]1([H])[C@@]2([H])C(=O)C[C@]2([H])C[C@H](O)CC[C@]12C,InChIKey=DXOCDBGWDZAYRQ-QPVZPPSOSA-N,3.78,-0.78,NaN,NaN,NaN,NaN,NaN,NaN,NaN,NaN,NaN,NaN,NaN,NaN
Prostaglandin E1,HMDB01442,2.015,1,dd,NA,0.0264,-1,CCCCC[C@H](O)\C=C\[C@H]1[C@H](O)CC(=O)[C@@H]1CCCCCCC(O)=O,InChIKey=GMVPRGQOIOIIMI-DWKJAMRDSA-N,0.83,4.95,NaN,NaN,NaN,NaN,NaN,NaN,NaN,NaN,NaN,NaN,NaN,NaN
Lathosterol,HMDB01170,2.025,1,m,NA,0.003,0,[H][C@@]1(CC[C@@]2([H])C3=CC[C@@]4([H])C[C@@H](O)CC[C@]4(C)[C@@]3([H])CC[C@]12C)[C@H](C)CCCC(C)C,InChIKey=IZVFFXVYBHFIHY-SKCNUYALSA-N,1.57,-2.4,3.905,NaN,NaN,NaN,NaN,NaN,NaN,NaN,NaN,NaN,NaN,NaN
2-Hydroxy-3-methylbutyric acid,HMDB00407,2.025,6,m,13.81 6.88 3.75,0.0383,-1,CC(C)C(O)C(O)=O,InChIKey=NGEWQZIDQIYUNV-UHFFFAOYSA-N,4.6,-7,6.1,NaN,NaN,3.13,7.4,NaN,NaN,NaN,NaN,NaN,NaN,NaN
L-Homoserine,HMDB00719,2.025,2,m,14.92 7.53 5.88,0.3485,0,N[C@@H](CCO)C(O)=O,InChIKey=UKAUYVFTDYCKQA-VKHMYHEASA-N,9.55,-7.4,12,NaN,NaN,NaN,NaN,NaN,NaN,NaN,NaN,NaN,NaN,NaN
Canrenone,HMDB03033,2.025,1,ddd,NA,0.0168,0,[H][C@@]12CC[C@@]3(CCC(=O)O3)[C@@]1(C)CC[C@@]1([H])[C@@]2([H])C=CC2=CC(=O)CC[C@]12C,InChIKey=UJVLDDZCTMKXJK-WNHSNXHDSA-N,6.68,-0.81,NA,NA,NA,NA,NA,NA,NA,NA,NA,NA,NA,NA
Medroxyprogesterone,HMDB01939,2.025,1,m,NA,0.016,0,[H][C@@]12CC[C@](O)(C(C)=O)[C@@]1(C)CC[C@@]1([H])[C@@]2([H])C[C@H](C)C2=CC(=O)CC[C@]12C,InChIKey=FRQMUZJSZHZSGN-HBNHAYAOSA-N,4.94,1.15,NA,NA,NA,NA,NA,NA,NA,NA,NA,NA,NA,NA
CE(16:1(9Z)),HMDB00658,2.025,6,m,NA,0.0841,0,CCCCCC\C=C/CCCCCCCC(=O)OC1CC[C@@]2(C)C(=CCC3C4CC[C@H]([C@H](C)CCCC(C)C)[C@@]4(C)CCC23)C1,InChIKey=HODJWNWCVNUPAQ-FSAOOAOSSA-N,1.87,10,NaN,NaN,NaN,NaN,NaN,NaN,NaN,NaN,NaN,NaN,NaN,NaN
Prostaglandin D2,HMDB01403,2.035,2,m,NA,0.0225,-1,CCCCC[C@H](O)\C=C\[C@@H]1[C@@H](C\C=C/CCCC(O)=O)[C@@H](O)CC1=O,InChIKey=BHMBVRSPMRCCGG-OUTUXVNYSA-N,3.65,5.53,2.00E-04,NaN,NaN,NaN,NaN,NaN,NaN,NaN,NaN,NaN,NaN,NaN
Pyroglutamic acid,HMDB00267,2.035,15,m,NA,0.1773,-1,OC(=O)[C@@H]1CCC(=O)N1,InChIKey=ODHCTXKNWHHXJC-VKHMYHEASA-N,12.7,-0.88,19.5,14,NaN,30.19,47,NaN,NaN,NaN,NaN,NaN,NaN,NaN
Oleic acid,HMDB00207,2.035,4,m,NA,0.3463,-1,CCCCCCCC\C=C/CCCCCCCC(O)=O,InChIKey=ZQPPMHVWECSIRJ-KTKRTIGZSA-N,1.64,-7.2,72.13575,2.68,NaN,NaN,NaN,NaN,NaN,NaN,NaN,NaN,NaN,NaN
13-cis-Retinoic acid,HMDB06219,2.035,2,t,NA,0.0397,-1,C\C(\C=C\C1=C(C)CCCC1(C)C)=C/C=C/C(/C)=C\C(O)=O,InChIKey=SHGAZHPCJJPHSC-XFYACQKRSA-N,0.38,-3.7,NaN,NaN,NaN,NaN,NaN,NaN,NaN,NaN,NaN,NaN,NaN,NaN
Chlorogenic acid,HMDB03164,2.035,1,m,NA,0.2048,-1,O[C@@H]1C[C@](O)(C[C@@H](OC(=O)\C=C\C2=CC(O)=C(O)C=C2)[C@@H]1O)C(O)=O,InChIKey=CWVRJTMFETXNAD-JUHZACGLSA-N,14.58,-3,NaN,NaN,NaN,NaN,NaN,NaN,NaN,NaN,NaN,NaN,NaN,NaN
Hyodeoxycholic acid,HMDB00733,2.035,0,m,NA,0.0672,-1,[H][C@@]12CC[C@H]([C@H](C)CCC(O)=O)[C@@]1(C)CC[C@@]1([H])[C@@]2([H])C[C@H](O)C2C[C@H](O)CC[C@]12C,InChIKey=DGABKXLVXPYZII-CDONHWFASA-N,5.01,-3.2,NaN,NaN,NaN,NaN,NaN,NaN,NaN,NaN,NaN,NaN,NaN,NaN
N-Acetylglutamic acid,HMDB01138,2.035,4,s,NA,1,-2,CC(=O)NC(CCC(O)=O)C(O)=O,InChIKey=RFMMMVDNIPUKGG-UHFFFAOYSA-N,1.19,-6.1,NaN,1,NaN,NaN,NaN,NaN,NaN,NaN,NaN,NaN,NaN,NaN
N-Alpha-acetyllysine,HMDB00446,2.035,11,s,NA,1,0,CC(=O)NC(CCCCN)C(O)=O,InChIKey=VEYYWZRYIYDQJM-UHFFFAOYSA-N,13.85,-0.16,NaN,NaN,NaN,NaN,NaN,NaN,NaN,NaN,NaN,NaN,NaN,NaN
Pyrrolidonecarboxylic acid,HMDB00805,2.035,1,m,NA,0.2447,-1,OC(=O)C1CCC(=O)N1,InChIKey=ODHCTXKNWHHXJC-UHFFFAOYSA-N,1.2,4.95,NaN,NaN,NaN,0.618,NaN,NaN,NaN,NaN,NaN,NaN,NaN,NaN
Stigmasterol,HMDB00937,2.035,2,m,NA,0.1451,0,CC[C@H](\C=C\[C@@H](C)[C@@]1([H])CC[C@@]2([H])[C@]3([H])CC=C4C[C@@H](O)CC[C@]4(C)[C@@]3([H])CC[C@]12C)C(C)C,InChIKey=HCXVJBMSMIARIN-PHZDYDNGSA-N,16.3,5.29,NaN,NaN,NaN,NaN,NaN,NaN,NaN,NaN,NaN,NaN,NaN,NaN
17a-Ethynylestradiol,HMDB01926,2.045,4,m,NA,0.111,0,[H][C@@]12CC[C@@](O)(C#C)[C@@]1(C)CC[C@]1([H])C3=CC=C(O)C=C3CC[C@@]21[H],InChIKey=BFPYWIDHMRZLRN-SLHNCBLASA-N,18.38,9.27,0.00016,NaN,NaN,NaN,NaN,NaN,NaN,NaN,NaN,NaN,NaN,NaN
Progesterone,HMDB01830,2.045,1,dd,4.80 3.29,0.0589,0,[H][C@@]12CC[C@H](C(C)=O)[C@@]1(C)CC[C@@]1([H])[C@@]2([H])CCC2=CC(=O)CC[C@]12C,InChIKey=RJKFOVLPORLFTN-LEKSSAKUSA-N,11.17,-6.2,0.0025,NaN,NaN,NaN,NaN,NaN,NaN,NaN,NaN,NaN,NaN,NaN
Taurocholic acid,HMDB00036,2.045,1,m,NA,0.0708,-1,[H][C@@]12C[C@H](O)CCC1(C)C1C[C@H](O)C3(C)C(CCC3C1[C@H](O)C2)C(C)CCC(=O)NCCS(O)(=O)=O,InChIKey=WBWWGRHZICKQGZ-BKXUXKPJSA-N,19.03,-2.8,0.38,NaN,NaN,NaN,NaN,NaN,NaN,NaN,NaN,NaN,NaN,NaN
Erucic acid,HMDB02068,2.045,4,q,6.47,0.1661,-1,CCCCCCCC\C=C/CCCCCCCCCCCC(O)=O,InChIKey=DPUOLQHDNGRHBS-KTKRTIGZSA-N,1.46,-6.1,0.646,NaN,NaN,NaN,NaN,NaN,NaN,NaN,NaN,NaN,NaN,NaN
Heparin,HMDB01394,2.045,3,br. s.,NA,0.0682,-6,CC(=O)N[C@@H]1[C@@H](O)[C@H](O)[C@@H](COS(O)(=O)=O)O[C@@H]1O[C@H]1[C@H](O)[C@@H](O)[C@H](O[C@@H]2[C@@H](O)O[C@H](O[C@H]3[C@H](O)[C@@H](OS(O)(=O)=O)C(O)O[C@H]3C(O)=O)[C@H](OS(O)(=O)=O)[C@H]2CS(O)(=O)=O)O[C@@H]1C(O)=O,InChIKey=ZFGMDIBRIDKWMY-PASTXAENSA-N,1.87,10,NA,NA,NA,NA,NA,NA,NA,NA,NA,NA,NA,NA
Lisinopril,HMDB01938,2.045,3,m,NA,0.4523,0,NCCCC[C@H](N[C@@H](CCC1=CC=CC=C1)C(O)=O)C(=O)N1CCC[C@H]1C(O)=O,InChIKey=RLAWWYSOJDYHDC-BZSNNMDCSA-N,2.04,-3,NA,NA,NA,NA,NA,NA,NA,NA,NA,NA,NA,NA
Pyruvatoxime,HMDB02455,2.045,4,s,NA,1,-1,C\C(=N/O)C(O)=O,InChIKey=MVGBKLTYYAYYGY-DUXPYHPUSA-N,1.87,-6.6,NA,NA,NA,NA,NA,NA,NA,NA,NA,NA,NA,NA
(+)-Limonene,HMDB04321,2.045,3,m,NA,0.0279,0,CC(=C)[C@@H]1CCC(C)=CC1,InChIKey=XMGQYMWWDOXHJM-JTQLQIEISA-N,1.86,-6.7,NaN,NaN,NaN,NaN,NaN,NaN,NaN,NaN,NaN,NaN,NaN,NaN
2-Methoxyestrone,HMDB00010,2.045,1,m,NA,0.0421,0,[H][C@@]12CCC(=O)[C@@]1(C)CC[C@]1([H])C3=C(CC[C@@]21[H])C=C(O)C(OC)=C3,InChIKey=WHEUWNKSCXYKBU-QPWUGHHJSA-N,1.87,10,NaN,0.005,NaN,NaN,NaN,NaN,NaN,NaN,NaN,NaN,NaN,NaN
Androstanedione,HMDB00899,2.045,1,m,NA,0.0988,0,[H][C@@]12CCC(=O)[C@@]1(C)CC[C@@]1([H])[C@@]2([H])CC[C@@]2([H])CC(=O)CC[C@]12C,InChIKey=RAJWOBJTTGJROA-WZNAKSSCSA-N,1.86,-3,NaN,NaN,NaN,NaN,NaN,NaN,NaN,NaN,NaN,NaN,NaN,NaN
CE(18:2(9Z.12Z)),HMDB00610,2.045,6,m,NA,0.1421,0,CCCCC\C=C/C\C=C/CCCCCCCC(=O)O[C@H]1CC[C@@]2(C)C(=CC[C@@]3([H])[C@]4([H])CC[C@]([H])([C@H](C)CCCC(C)C)[C@@]4(C)CC[C@]23[H])C1,InChIKey=NAACPBBQTFFYQB-LJAITQKLSA-N,1.87,10,NaN,NaN,NaN,NaN,NaN,NaN,NaN,NaN,NaN,NaN,NaN,NaN
Cholestenone,HMDB00921,2.045,2,m,NA,0.1545,0,[H][C@@]12CC[C@H]([C@H](C)CCCC(C)C)[C@@]1(C)CC[C@@]1([H])[C@@]2([H])CCC2=CC(=O)CC[C@]12C,InChIKey=NYOXRYYXRWJDKP-GYKMGIIDSA-N,0.83,7.72,NaN,NaN,NaN,NaN,NaN,NaN,NaN,NaN,NaN,NaN,NaN,NaN
Estradiol,HMDB00151,2.045,1,br. s.,NA,0.0417,0,[H][C@@]12CC[C@H](O)[C@@]1(C)CC[C@]1([H])C3=C(CC[C@@]21[H])C=C(O)C=C3,InChIKey=VOXZDWNPVJITMN-ZBRFXRBCSA-N,1.86,-6.7,NaN,NaN,NaN,NA,NaN,NaN,NaN,NaN,NaN,NaN,NaN,NaN
Methyl isobutyl ketone,HMDB02939,2.045,1,m,NA,0.0439,0,CC(C)CC(C)=O,InChIKey=NTIZESTWPVYFNL-UHFFFAOYSA-N,1.31,4.01,NaN,NaN,NaN,NaN,NaN,NaN,NaN,NaN,NaN,NaN,NaN,NaN
N-Acetyl-L-aspartic acid,HMDB00812,2.045,17,s,NA,0.2546,-2,CC(=O)N[C@@H](CC(O)=O)C(O)=O,InChIKey=OTCCIMWXFLJLIA-BYPYZUCNSA-N,2.94,-3.6,NaN,0.4,NaN,NaN,0.81,NaN,NaN,NaN,NaN,NaN,NaN,NaN
N-Acetyl-L-methionine,HMDB11745,2.045,24,s,NA,0.6911,-1,CSCCC(NC(C)=O)C(O)=O,InChIKey=XUYPXLNMDZIRQH-UHFFFAOYSA-N,1.86,-6.7,NaN,NaN,NaN,NaN,NaN,NaN,NaN,NaN,NaN,NaN,NaN,NaN
Retinal,HMDB01358,2.045,5,br. s.,NA,0.2717,0,C\C(\C=C\C=C(/C)\C=C\C1=C(C)CCCC1(C)C)=C/C=O,InChIKey=NCYCYZXNIZJOKI-OVSJKPMPSA-N,1.48,10.78,NaN,NaN,NaN,NaN,NaN,NaN,NaN,NaN,NaN,NaN,NaN,NaN
Selenomethionine,HMDB03966,2.045,3,s,NA,1,0,C[Se]CCC(N)C(O)=O,InChIKey=RJFAYQIBOAGBLC-UHFFFAOYSA-N,1.86,-6.7,NaN,NaN,NaN,NaN,NaN,NaN,NaN,NaN,NaN,NaN,NaN,NaN
Androstenedione,HMDB00053,2.055,3,m,NA,0.0835,0,[H][C@@]12CCC(=O)[C@@]1(C)CC[C@@]1([H])[C@@]2([H])CCC2=CC(=O)CC[C@]12C,InChIKey=AEMFNILZOJDQLW-QAGGRKNESA-N,18.2,-7.4,0.0059,0.0068,NaN,NaN,NaN,NaN,NaN,NaN,NaN,NaN,NaN,NaN
7-Ketocholesterol,HMDB00501,2.055,2,dt,12.81 3.29,0.0691,0,[H][C@@]12CCC([C@H](C)CCCC(C)C)[C@@]1(C)CC[C@@]1([H])[C@@]2([H])C(=O)C=C2CC(O)CC[C@]12C,InChIKey=YIKKMWSQVKJCOP-QJFKPLHKSA-N,4.65,-6.7,0.056333333,NaN,NaN,NaN,NaN,NaN,NaN,NaN,NaN,NaN,NaN,NaN
Alpha-Linolenic acid,HMDB01388,2.055,4,m,NA,0.0477,-1,CC\C=C/C\C=C/C\C=C/CCCCCCCC(O)=O,InChIKey=DTOSIQBPPRVQHS-PDBXOOCHSA-N,11.32,1.82,7.383333333,NaN,NaN,NaN,NaN,NaN,NaN,NaN,NaN,NaN,NaN,NaN
Bilirubin,HMDB00054,2.055,3,s,NA,0.926,-2,CC1=C(C=C)\C(NC1=O)=C\C1=C(C)C(CCC(O)=O)=C(CC2=C(CCC(O)=O)C(C)=C(N2)\C=C2/NC(=O)C(C=C)=C2C)N1,InChIKey=BPYKTIZUTYGOLE-IFADSCNNSA-N,3.6,-0.54,11.6,NA,NaN,NaN,0,NaN,NaN,NaN,NaN,NaN,NaN,NaN
L-Glutamic acid,HMDB00148,2.055,19,m,NA,NA,-1,N[C@@H](CCC(O)=O)C(O)=O,InChIKey=WHUUTDBJXJRKMK-VKHMYHEASA-N,4.95,-5.5,97.4,NA,NaN,NA,10.715,NaN,NaN,NaN,NaN,NaN,NaN,NaN
5alpha-Cholestanone,HMDB00871,2.055,2,m,NA,0.1487,0,[H][C@@]1(CC[C@@]2([H])[C@]3([H])CC[C@@]4([H])CC(=O)CC[C@]4(C)[C@@]3([H])CC[C@]12C)[C@H](C)CCCC(C)C,InChIKey=PESKGJQREUXSRR-UXIWKSIVSA-N,1.78,4.8,NA,NA,NA,NA,NA,NA,NA,NA,NA,NA,NA,NA
N-Acetyllactosamine,HMDB01542,2.055,3,s,NA,0.9984,0,CC(=O)N[C@H]1[C@H](O)O[C@H](CO)[C@@H](O[C@@H]2O[C@H](CO)[C@H](O)[C@H](O)[C@H]2O)[C@@H]1O,InChIKey=KFEUJDWYNGMDBV-LODBTCKLSA-N,4.82,-0.54,NA,NA,NA,NA,NA,NA,NA,NA,NA,NA,NA,NA
N-Stearoylsphingosine,HMDB00829,2.055,2,m,NA,8.00E-04,0,CCCCCCCCCCCCCCCCCC(=O)NC(CO)C(O)\C=C\CCCCCCCCCCCCC,InChIKey=VODZWWMEJITOND-OWWNRXNESA-N,1.23,-3,NA,NA,NA,NA,NA,NA,NA,NA,NA,NA,NA,NA
Beta-N-Acetylglucosamine,HMDB00803,2.055,6,s,NA,1,0,CC(=O)N[C@H]1[C@H](O)O[C@H](CO)[C@@H](O)[C@@H]1O,InChIKey=OVRNDRQMDRJTHS-FMDGEEDCSA-N,1.16,8.69,NaN,NaN,NaN,NaN,NaN,NaN,NaN,NaN,NaN,NaN,NaN,NaN
Deoxycorticosterone,HMDB00016,2.055,1,dq,NA,0.0593,0,[H][C@@]12CC[C@H](C(=O)CO)[C@@]1(C)CC[C@@]1([H])[C@@]2([H])CCC2=CC(=O)CC[C@]12C,InChIKey=ZESRJSPZRDMNHY-YFWFAHHUSA-N,-1.9,-2.7,NaN,NaN,NaN,NaN,NaN,NaN,NaN,NaN,NaN,NaN,NaN,NaN
Eucalyptol,HMDB04472,2.055,2,m,NA,0.0359,0,CC12CCC(CC1)C(C)(C)O2,InChIKey=WEEGYLXZBRQIMU-UHFFFAOYSA-N,1.86,-6.7,NaN,NaN,NaN,NaN,NaN,NaN,NaN,NaN,NaN,NaN,NaN,NaN
N-Acetylgalactosamine 4-sulphate,HMDB00781,2.055,6,s,NA,1,-1,CC(=O)N[C@H]1[C@H](O)O[C@H](CO)[C@H](OS(O)(=O)=O)[C@@H]1O,InChIKey=WHCJUIFHMJFEFZ-UIAUGNHASA-N,4.09,9.31,NaN,NaN,NaN,NaN,NaN,NaN,NaN,NaN,NaN,NaN,NaN,NaN
N-Acetylmannosamine,HMDB01129,2.055,3,s,NA,1,0,[H][C@@]1(O)O[C@H](CO)[C@@H](O)[C@H](O)[C@@H]1NC(C)=O,InChIKey=OVRNDRQMDRJTHS-OZRXBMAMSA-N,2.86,2.89,NaN,NaN,NaN,NaN,NaN,NaN,NaN,NaN,NaN,NaN,NaN,NaN
Squalene,HMDB00256,2.055,20,m,NA,0.2154,0,CC(C)=CCC\C(C)=C/CC\C(C)=C\CC\C=C(/C)CC\C=C(/C)CCC=C(C)C,InChIKey=YYGNTYWPHWGJRM-FLHYQJCXSA-N,4.51,-3.8,NaN,NaN,NaN,NaN,NaN,NaN,NaN,NaN,NaN,NaN,NaN,NaN
Mevalonic acid,HMDB00227,2.063,1,m,NA,0.0027,-1,CC(O)(CCO)CC(O)=O,InChIKey=KJTLQQUUPVSXIM-UHFFFAOYSA-N,3.44,-2.9,0.028,0.217775,NaN,NaN,NaN,NaN,NaN,NaN,NaN,NaN,NaN,NaN
2-Methoxyestradiol,HMDB00405,2.065,1,m,NA,0.0325,0,[H][C@@]12CC[C@H](O)[C@@]1(C)CC[C@]1([H])C3=C(CC[C@@]21[H])C=C(O)C(OC)=C3,InChIKey=CQOQDQWUFQDJMK-SSTWWWIQSA-N,4.02,-1.4,0.01,NaN,NaN,NaN,NaN,NaN,NaN,NaN,NaN,NaN,NaN,NaN
N-Acetylneuraminic acid,HMDB00230,2.065,3,s,NA,1,-1,CC(=O)N[C@@H]1[C@@H](O)C[C@](O)(O[C@H]1[C@H](O)[C@H](O)CO)C(O)=O,InChIKey=SQVRNKJHWKZAKO-PFQGKNLYSA-N,2.89,6.96,0.57,8.6,NaN,NaN,11.9,NaN,NaN,NaN,NaN,NaN,NaN,NaN
Isovaleric acid,HMDB00718,2.065,2,d,0.53,0.3151,-1,CC(C)CC(O)=O,InChIKey=GWYFCOCPABKNJV-UHFFFAOYSA-N,4.65,3.68,1.6,41,NaN,54.03,1.35,NaN,NaN,NaN,NaN,NaN,NaN,NaN
5-Hydroxylysine,HMDB00450,2.065,12,m,NA,0.3889,1,NC[C@H](O)CC[C@H](N)C(O)=O,InChIKey=YSMODUONRAFBET-UHNVWZDZSA-N,1.87,-3,2.5,0.555,NaN,NaN,NaN,NaN,NaN,NaN,NaN,NaN,NaN,NaN
Alpha-Tocopherol,HMDB01893,2.065,1,m,NA,0.0561,0,CC(C)CCC[C@@H](C)CCC[C@@H](C)CCC[C@]1(C)CCC2=C(O1)C(C)=C(C)C(O)=C2C,InChIKey=GVJHHUAWPYXKBD-IEOSBIPESA-N,10.07,-4.2,30.94,NaN,NaN,0.082,NaN,NaN,NaN,NaN,NaN,NaN,NaN,NaN
Acetylglycine,HMDB00532,2.065,34,s,NA,1,-1,CC(=O)NCC(O)=O,InChIKey=OKJIRPAQVSHGFK-UHFFFAOYSA-N,18.3,-1.4,69.7,NaN,NaN,56.76,NaN,NaN,NaN,NaN,NaN,NaN,NaN,NaN
Ondansetron,HMDB05035,2.065,1,m,NA,0.0053,1,CN1C2=C(C3=CC=CC=C13)C(=O)C(CN1C=CN=C1C)CC2,InChIKey=FELGMEQIXOGIFQ-UHFFFAOYSA-N,1.87,10,NA,NA,NA,NA,NA,NA,NA,NA,NA,NA,NA,NA
16b-Hydroxyestradiol,HMDB00347,2.065,1,td,NA,0.0481,0,[H][C@@]12C[C@H](O)[C@H](O)[C@@]1(C)CC[C@]1([H])C3=C(CC[C@@]21[H])C=C(O)C=C3,InChIKey=PROQIPRRNZUXQM-ZMSHIADSSA-N,11.47,-3.8,NaN,NaN,NaN,NaN,NaN,NaN,NaN,NaN,NaN,NaN,NaN,NaN
8.11.14-Eicosatrienoic acid,HMDB02925,2.065,4,m,NA,0.1437,-1,CCCCC\C=C/C\C=C/C\C=C/CCCCCCC(O)=O,InChIKey=HOBAELRKJCKHQD-QNEBEIHSSA-N,1.86,-3,NaN,NaN,NaN,NaN,NaN,NaN,NaN,NaN,NaN,NaN,NaN,NaN
Mevalonolactone,HMDB06024,2.065,1,m,NA,0.0713,0,C[C@]1(O)CCOC(=O)C1,InChIKey=JYVXNLLUYHCIIH-LURJTMIESA-N,1.86,-3,NaN,NaN,NaN,NaN,NaN,NaN,NaN,NaN,NaN,NaN,NaN,NaN
N-Acetylgalactosamine,HMDB00212,2.065,7,d,1.41,1,0,CC(=O)N[C@H]1[C@@H](O)O[C@H](CO)[C@H](O)[C@@H]1O,InChIKey=OVRNDRQMDRJTHS-CBQIKETKSA-N,15.7,-3.3,NaN,NaN,NaN,NaN,NaN,NaN,NaN,NaN,NaN,NaN,NaN,NaN
N-Acetylglutamic acid,HMDB01138,2.065,5,m,NA,1,-2,CC(=O)NC(CCC(O)=O)C(O)=O,InChIKey=RFMMMVDNIPUKGG-UHFFFAOYSA-N,1.19,-6.1,NaN,1,NaN,NaN,NaN,NaN,NaN,NaN,NaN,NaN,NaN,NaN
Perillic acid,HMDB04586,2.065,1,m,NA,0.0366,-1,CC(=C)C1CCC(=CC1)C(O)=O,InChIKey=CDSMSBUVCWHORP-UHFFFAOYSA-N,1.89,-6.6,NaN,NaN,NaN,NaN,NaN,NaN,NaN,NaN,NaN,NaN,NaN,NaN
Quinic acid,HMDB03072,2.065,2,m,NA,0.2777,-1,OC1C[C@@](O)(C[C@@H](O)[C@H]1O)C(O)=O,InChIKey=AAWZDTNXLSGCEK-RKGSPJAZSA-N,1.86,-0.032,NaN,NaN,NaN,NaN,NaN,NaN,NaN,NaN,NaN,NaN,NaN,NaN
Etiocholanolone,HMDB00490,2.075,1,m,NA,0.0815,0,[H][C@@]12CCC(=O)[C@@]1(C)CC[C@@]1([H])[C@@]2([H])CC[C@]2([H])C[C@H](O)CC[C@]12C,InChIKey=QGXBDMJGAMFCBF-BNSUEQOYSA-N,3.89,9.5,0.0013,NaN,NaN,NaN,NaN,NaN,NaN,NaN,NaN,NaN,NaN,NaN
Isovalerylcarnitine,HMDB00688,2.075,1,m,NA,0.0165,0,CC(C)CC(=O)OC(CC([O-])=O)C[N+](C)(C)C,InChIKey=IGQBPDJNUXPEMT-UHFFFAOYSA-N,11.6,9.4,0.138,NaN,NaN,0.073,NaN,NaN,NaN,NaN,NaN,NaN,NaN,NaN
D-Limonene,HMDB03375,2.075,3,m,NA,0.0507,0,CC(=C)[C@H]1CCC(C)=CC1,InChIKey=XMGQYMWWDOXHJM-SNVBAGLBSA-N,14.58,-3,0.19,NaN,NaN,NaN,NaN,NaN,NaN,NaN,NaN,NaN,NaN,NaN
Linoleic acid,HMDB00673,2.075,4,m,NA,0.5613,-1,CCCCC\C=C/C\C=C/CCCCCCCC(O)=O,InChIKey=OYHQOLUKZRVURQ-HZJYTTRNSA-N,9.99,9.23,48.2866,0.05,NaN,NaN,NaN,NaN,NaN,NaN,NaN,NaN,NaN,NaN
L-Proline,HMDB00162,2.075,1,m,NA,0.5904,0,OC(=O)[C@@H]1CCCN1,InChIKey=ONIBWKKTOPOVIA-BYPYZUCNSA-N,4.75,9.43,181.2666667,NA,NaN,NA,NA,NaN,NaN,NaN,NaN,NaN,NaN,NaN
16-Dehydroprogesterone,HMDB00995,2.075,1,m,NA,0.0959,0,[H][C@@]12CC=C(C(C)=O)[C@@]1(C)CC[C@@]1([H])[C@@]2([H])CCC2=CC(=O)CC[C@]12C,InChIKey=VRRHHTISESGZFN-RKFFNLMFSA-N,2.52,-0.94,NA,NA,NA,NA,NA,NA,NA,NA,NA,NA,NA,NA
5-Dodecenoic acid,HMDB00529,2.075,11,m,NA,0.028,-1,CCCCCC\C=C/CCCC(O)=O,InChIKey=IJBFSOLHRKELLR-FPLPWBNLSA-N,-1.9,-1.5,NA,NA,NA,NA,NA,NA,NA,NA,NA,NA,NA,NA
Danazol,HMDB02835,2.075,1,ddd,NA,0.0503,0,[H][C@@]12CC[C@@](O)(C#C)[C@@]1(C)CC[C@@]1([H])[C@@]2([H])CCC2=CC3=C(C[C@]12C)C=NO3,InChIKey=POZRVZJJTULAOH-LHZXLZLDSA-N,2.89,-3.5,NA,NA,NA,NA,NA,NA,NA,NA,NA,NA,NA,NA
2-Hydroxyestrone,HMDB00343,2.075,3,m,NA,0.0906,0,[H][C@@]12CCC(=O)[C@@]1(C)CC[C@]1([H])C3=C(CC[C@@]21[H])C=C(O)C(O)=C3,InChIKey=SWINWPBPEKHUOD-JPVZDGGYSA-N,4,-2.8,NaN,NaN,NaN,NaN,NaN,NaN,NaN,NaN,NaN,NaN,NaN,NaN
Dihydroandrosterone,HMDB00554,2.075,1,m,NA,0.0602,0,[H][C@@]12CC[C@H](O)[C@@]1(C)CC[C@@]1([H])[C@@]2([H])CC[C@@]2([H])C[C@H](O)CC[C@]12C,InChIKey=CBMYJHIOYJEBSB-KHOSGYARSA-N,3.62,9.99,NaN,NaN,NaN,NaN,NaN,NaN,NaN,NaN,NaN,NaN,NaN,NaN
Epitestosterone,HMDB00628,2.075,1,m,NA,0.0253,0,[H][C@@]12CC[C@@H](O)[C@@]1(C)CC[C@@]1([H])[C@@]2([H])CCC2=CC(=O)CC[C@]12C,InChIKey=MUMGGOZAMZWBJJ-KZYORJDKSA-N,3.89,4.89,NaN,NaN,NaN,NaN,NaN,NaN,NaN,NaN,NaN,NaN,NaN,NaN
Glycyrrhetinic acid,HMDB11628,2.075,2,m,NA,0.074,-1,CC1(C)[C@@H](O)CC[C@@]2(C)C1CC[C@]1(C)C2C(=O)C=C2C3C[C@](C)(CC[C@]3(C)CC[C@@]12C)C(O)=O,InChIKey=MPDGHEJMBKOTSU-WFJWTYAKSA-N,1.86,-3,NaN,NaN,NaN,NaN,NaN,NaN,NaN,NaN,NaN,NaN,NaN,NaN
Progesterone,HMDB01830,2.085,1,m,NA,0.0896,0,[H][C@@]12CC[C@H](C(C)=O)[C@@]1(C)CC[C@@]1([H])[C@@]2([H])CCC2=CC(=O)CC[C@]12C,InChIKey=RJKFOVLPORLFTN-LEKSSAKUSA-N,11.17,-6.2,0.0025,NaN,NaN,NaN,NaN,NaN,NaN,NaN,NaN,NaN,NaN,NaN
Corticosterone,HMDB01547,2.085,3,m,NA,0.0342,0,[H][C@@]12CC[C@H](C(=O)CO)[C@@]1(C)C[C@H](O)[C@@]1([H])[C@@]2([H])CCC2=CC(=O)CC[C@]12C,InChIKey=OMFXVFTZEKFJBZ-HJTSIMOOSA-N,2.79,-0.13,0.027,NaN,NaN,NaN,NaN,NaN,NaN,NaN,NaN,NaN,NaN,NaN
Sphingosine,HMDB00252,2.085,2,q,NA,0.0724,1,CCCCCCCCCCCCC\C=C\C(O)C(N)CO,InChIKey=WWUZIQQURGPMPG-CCEZHUSRSA-N,10.33,-2.7,0.05,3.85E-05,NaN,NaN,NaN,NaN,NaN,NaN,NaN,NaN,NaN,NaN
1.3-Diaminopropane,HMDB00002,2.085,1,m,7.81,0.3608,2,NCCCN,InChIKey=XFNJVJPLKCPIBV-UHFFFAOYSA-N,3.19,10.47,NaN,0.908333333,NaN,NaN,NaN,NaN,NaN,NaN,NaN,NaN,NaN,NaN
Epiandrosterone,HMDB00365,2.085,1,td,NA,0.1036,0,[H][C@@]12CCC(=O)[C@@]1(C)CC[C@@]1([H])[C@@]2([H])CCC2C[C@@H](O)CC[C@]12C,InChIKey=QGXBDMJGAMFCBF-QRIARFFBSA-N,9.61,-3,NaN,NaN,NaN,NaN,NaN,NaN,NaN,NaN,NaN,NaN,NaN,NaN
Saccharopine,HMDB00279,2.085,2,q,7.14,0.2163,-1,N[C@@H](CCCCN[C@@H](CCC(O)=O)C(O)=O)C(O)=O,InChIKey=ZDGJAHTZVHVLOT-YUMQZZPRSA-N,4.48,-2.8,NaN,NaN,NaN,NaN,NaN,NaN,NaN,NaN,NaN,NaN,NaN,NaN
Uridine diphosphate-N-acetylglucosamine,HMDB00290,2.085,1,s,NA,1,-2,CC(=O)N[C@@H]1[C@@H](O)[C@H](O)[C@@H](CO)O[C@@H]1OP(O)(=O)OP(O)(=O)OC[C@H]1O[C@H]([C@H](O)[C@@H]1O)N1C=CC(=O)NC1=O,InChIKey=LFTYTUAZOPRMMI-CFRASDGPSA-N,4.67,-0.88,NaN,NaN,NaN,NaN,NaN,NaN,NaN,NaN,NaN,NaN,NaN,NaN
Testosterone,HMDB00234,2.086,2,m,NA,0.0729,0,[H][C@@]12CC[C@H](O)[C@@]1(C)CC[C@@]1([H])[C@@]2([H])CCC2=CC(=O)CC[C@]12C,InChIKey=MUMGGOZAMZWBJJ-DYKIIFRCSA-N,4.56,-2.8,NaN,1.07,NaN,NaN,NaN,NaN,NaN,NaN,NaN,NaN,NaN,NaN
Aminoadipic acid,HMDB00510,2.09,1,m,NA,0.4125,-1,NC(CCCC(O)=O)C(O)=O,InChIKey=OYIFNHCXNCRBQI-UHFFFAOYSA-N,7.6,-3.8,2,4.6,NaN,NaN,NaN,NaN,NaN,NaN,NaN,NaN,NaN,NaN
Aminopterin,HMDB01833,2.09,2,m,NA,0.1601,-2,NC1=NC2=C(N=C(CNC3=CC=C(C=C3)C(=O)NC(CCC(O)=O)C(O)=O)C=N2)C(N)=N1,InChIKey=TVZGACDUOSZQKY-UHFFFAOYSA-N,9.51,-3.5,NA,NA,NA,NA,NA,NA,NA,NA,NA,NA,NA,NA
Aldosterone,HMDB00037,2.095,5,m,NA,0.0324,0,C[C@]12CCC(=O)C=C1CCC1C3CC[C@H](C(=O)CO)[C@]3(C[C@H](O)C21)C=O,InChIKey=PQSUYGKTWSAVDQ-SRPWZAMTSA-N,4.03,-3,6.80E-05,0.01,NaN,NA,NaN,NaN,NaN,NaN,NaN,NaN,NaN,NaN